 Entering Gaussian System, Link 0=g16
 Input=test.com
 Output=test.log
 Initial command:
 /opt/sw/arch/easybuild/sticky_20170712/software/Gaussian/16_A03-PGI-16.5/g16/l1.exe "/home/pbeaujea/g2xtb_interface/tmp/Gau-16185.inp" -scrdir="/home/pbeaujea/g2xtb_interface/tmp/"
 Entering Link 1 = /opt/sw/arch/easybuild/sticky_20170712/software/Gaussian/16_A03-PGI-16.5/g16/l1.exe PID=     16187.
  
 Copyright (c) 1988,1990,1992,1993,1995,1998,2003,2009,2016,
            Gaussian, Inc.  All Rights Reserved.
  
 This is part of the Gaussian(R) 16 program.  It is based on
 the Gaussian(R) 09 system (copyright 2009, Gaussian, Inc.),
 the Gaussian(R) 03 system (copyright 2003, Gaussian, Inc.),
 the Gaussian(R) 98 system (copyright 1998, Gaussian, Inc.),
 the Gaussian(R) 94 system (copyright 1995, Gaussian, Inc.),
 the Gaussian 92(TM) system (copyright 1992, Gaussian, Inc.),
 the Gaussian 90(TM) system (copyright 1990, Gaussian, Inc.),
 the Gaussian 88(TM) system (copyright 1988, Gaussian, Inc.),
 the Gaussian 86(TM) system (copyright 1986, Carnegie Mellon
 University), and the Gaussian 82(TM) system (copyright 1983,
 Carnegie Mellon University). Gaussian is a federally registered
 trademark of Gaussian, Inc.
  
 This software contains proprietary and confidential information,
 including trade secrets, belonging to Gaussian, Inc.
  
 This software is provided under written license and may be
 used, copied, transmitted, or stored only in accord with that
 written license.
  
 The following legend is applicable only to US Government
 contracts under FAR:
  
                    RESTRICTED RIGHTS LEGEND
  
 Use, reproduction and disclosure by the US Government is
 subject to restrictions as set forth in subparagraphs (a)
 and (c) of the Commercial Computer Software - Restricted
 Rights clause in FAR 52.227-19.
  
 Gaussian, Inc.
 340 Quinnipiac St., Bldg. 40, Wallingford CT 06492
  
  
 ---------------------------------------------------------------
 Warning -- This program may not be used in any manner that
 competes with the business of Gaussian, Inc. or will provide
 assistance to any competitor of Gaussian, Inc.  The licensee
 of this program is prohibited from giving any competitor of
 Gaussian, Inc. access to this program.  By using this program,
 the user acknowledges that Gaussian, Inc. is engaged in the
 business of creating and licensing software in the field of
 computational chemistry and represents and warrants to the
 licensee that it is not a competitor of Gaussian, Inc. and that
 it will not use this program in any manner prohibited above.
 ---------------------------------------------------------------
  

 Cite this work as:
 Gaussian 16, Revision A.03,
 M. J. Frisch, G. W. Trucks, H. B. Schlegel, G. E. Scuseria, 
 M. A. Robb, J. R. Cheeseman, G. Scalmani, V. Barone, 
 G. A. Petersson, H. Nakatsuji, X. Li, M. Caricato, A. V. Marenich, 
 J. Bloino, B. G. Janesko, R. Gomperts, B. Mennucci, H. P. Hratchian, 
 J. V. Ortiz, A. F. Izmaylov, J. L. Sonnenberg, D. Williams-Young, 
 F. Ding, F. Lipparini, F. Egidi, J. Goings, B. Peng, A. Petrone, 
 T. Henderson, D. Ranasinghe, V. G. Zakrzewski, J. Gao, N. Rega, 
 G. Zheng, W. Liang, M. Hada, M. Ehara, K. Toyota, R. Fukuda, 
 J. Hasegawa, M. Ishida, T. Nakajima, Y. Honda, O. Kitao, H. Nakai, 
 T. Vreven, K. Throssell, J. A. Montgomery, Jr., J. E. Peralta, 
 F. Ogliaro, M. J. Bearpark, J. J. Heyd, E. N. Brothers, K. N. Kudin, 
 V. N. Staroverov, T. A. Keith, R. Kobayashi, J. Normand, 
 K. Raghavachari, A. P. Rendell, J. C. Burant, S. S. Iyengar, 
 J. Tomasi, M. Cossi, J. M. Millam, M. Klene, C. Adamo, R. Cammi, 
 J. W. Ochterski, R. L. Martin, K. Morokuma, O. Farkas, 
 J. B. Foresman, and D. J. Fox, Gaussian, Inc., Wallingford CT, 2016.
 
 ******************************************
 Gaussian 16:  ES64L-G16RevA.03 25-Dec-2016
                 9-Oct-2019 
 ******************************************
 ----------------------------------------------------------------------
 #p opt external="/home/pbeaujea/g2xtb_interface/interface.py -s h2o" n
 osymmetry
 ----------------------------------------------------------------------
 1/6=10,10=10,18=4000020,19=15,26=1,38=1/1,3;
 2/9=110,12=2,15=1,17=6,18=5,40=1/2;
 3/11=9,25=1,30=1,41=9900000,43=2,71=1/1;
 4/20=17,22=1001,24=3,113=1,114=1/2;
 6/7=2,8=2,9=2,10=2/1;
 7/30=1,44=-1/16;
 1/6=10,10=10,18=4000020,19=15,26=1/3(2);
 2/9=110,15=1/2;
 99//99;
 2/9=110,15=1/2;
 3/11=9,25=1,30=1,41=9900000,43=2,71=1/1;
 4/16=2,20=17,22=1001,24=3,113=1,114=1/2;
 7/30=1,44=-1/16;
 1/6=10,10=10,18=4000020,19=15,26=1/3(-4);
 2/9=110,15=1/2;
 6/7=2,8=2,9=2,10=2/1;
 99//99;
 Leave Link    1 at Wed Oct  9 11:08:40 2019, MaxMem=           0 cpu:               0.0 elap:               0.0
 (Enter /opt/sw/arch/easybuild/sticky_20170712/software/Gaussian/16_A03-PGI-16.5/g16/l101.exe)
 -----
 Title
 -----
 Symbolic Z-matrix:
 Charge =  0 Multiplicity = 1
 7                     0.        0.       -0.06037 
 1                    -0.96166   0.        0.27962 
 1                     0.48083  -0.83283   0.27962 
 1                     0.48083   0.83283   0.27962 
 
 ITRead=  3  3  3  3
 MicOpt=  0  0  0  0
 NAtoms=      4 NQM=        0 NQMF=       0 NMMI=      0 NMMIF=      0
                NMic=       4 NMicF=      0.
                    Isotopes and Nuclear Properties:
 (Nuclear quadrupole moments (NQMom) in fm**2, nuclear magnetic moments (NMagM)
  in nuclear magnetons)

  Atom         1           2           3           4
 IAtWgt=          14           1           1           1
 AtmWgt=  14.0030740   1.0078250   1.0078250   1.0078250
 NucSpn=           2           1           1           1
 AtZEff=  -0.0000000  -0.0000000  -0.0000000  -0.0000000
 NQMom=    2.0440000   0.0000000   0.0000000   0.0000000
 NMagM=    0.4037610   2.7928460   2.7928460   2.7928460
 AtZNuc=   7.0000000   1.0000000   1.0000000   1.0000000
 Leave Link  101 at Wed Oct  9 11:08:40 2019, MaxMem=   104857600 cpu:               0.4 elap:               0.4
 (Enter /opt/sw/arch/easybuild/sticky_20170712/software/Gaussian/16_A03-PGI-16.5/g16/l103.exe)

 GradGradGradGradGradGradGradGradGradGradGradGradGradGradGradGradGradGrad
 Berny optimization.
 Initialization pass.
 No Z-matrix variables, so optimization will use Cartesian coordinates.
 Trust Radius=1.00D-01 FncErr=1.00D-07 GrdErr=1.00D-07 EigMax=2.50D+02 EigMin=1.00D-04
 Number of steps in this run=      2 maximum allowed number of steps=      2.
 GradGradGradGradGradGradGradGradGradGradGradGradGradGradGradGradGradGrad

 Leave Link  103 at Wed Oct  9 11:08:40 2019, MaxMem=   104857600 cpu:               0.0 elap:               0.0
 (Enter /opt/sw/arch/easybuild/sticky_20170712/software/Gaussian/16_A03-PGI-16.5/g16/l202.exe)
                          Input orientation:                          
 ---------------------------------------------------------------------
 Center     Atomic      Atomic             Coordinates (Angstroms)
 Number     Number       Type             X           Y           Z
 ---------------------------------------------------------------------
      1          7           0        0.000000    0.000000   -0.060375
      2          1           0       -0.961664    0.000000    0.279622
      3          1           0        0.480832   -0.832825    0.279622
      4          1           0        0.480832    0.832825    0.279622
 ---------------------------------------------------------------------
                    Distance matrix (angstroms):
                    1          2          3          4
     1  N    0.000000
     2  H    1.019998   0.000000
     3  H    1.019998   1.665650   0.000000
     4  H    1.019998   1.665650   1.665650   0.000000
 Symmetry turned off by external request.
 Stoichiometry    H3N
 Framework group  C3V[C3(N),3SGV(H)]
 Deg. of freedom     2
 Full point group                 C3V     NOp   6
 Rotational constants (GHZ):         299.8402441         299.8402438         180.7441980
 Leave Link  202 at Wed Oct  9 11:08:41 2019, MaxMem=   104857600 cpu:               0.1 elap:               0.1
 (Enter /opt/sw/arch/easybuild/sticky_20170712/software/Gaussian/16_A03-PGI-16.5/g16/l301.exe)
 Standard basis: STO-3G (5D, 7F)
 Ernie: Thresh=  0.10000D-02 Tol=  0.10000D-05 Strict=F.
     8 basis functions,    24 primitive gaussians,     8 cartesian basis functions
     5 alpha electrons        5 beta electrons
       nuclear repulsion energy        11.8479516753 Hartrees.
 IExCor=    0 DFT=F Ex=HF Corr=None ExCW=0 ScaHFX=  1.000000
 ScaDFX=  1.000000  1.000000  1.000000  1.000000 ScalE2=  1.000000  1.000000
 IRadAn=      5 IRanWt=     -1 IRanGd=            0 ICorTp=0 IEmpDi=  4
 NAtoms=    4 NActive=    4 NUniq=    4 SFac= 1.00D+00 NAtFMM=   60 NAOKFM=F Big=F
 Integral buffers will be    131072 words long.
 Raffenetti 1 integral format.
 Two-electron integral symmetry is turned off.
 Leave Link  301 at Wed Oct  9 11:08:41 2019, MaxMem=   104857600 cpu:               0.1 elap:               0.2
 (Enter /opt/sw/arch/easybuild/sticky_20170712/software/Gaussian/16_A03-PGI-16.5/g16/l402.exe)
 External calculation of energy and first derivatives.
 Running external command "/home/pbeaujea/g2xtb_interface/interface.py -s h2o R"
         input file       "/home/pbeaujea/g2xtb_interface/tmp/Gau-16187.EIn"
         output file      "/home/pbeaujea/g2xtb_interface/tmp/Gau-16187.EOu"
         message file     "/home/pbeaujea/g2xtb_interface/tmp/Gau-16187.EMs"
         fchk file        "/home/pbeaujea/g2xtb_interface/tmp/Gau-16187.EFC"
         mat. el file     "/home/pbeaujea/g2xtb_interface/tmp/Gau-16187.EUF"

 ExternalExternalExternalExternalExternalExternalExternalExternalExternalExternal
 Output from external command:
 "/home/pbeaujea/g2xtb_interface/interface.py -s h2o R /home/pbeaujea/g2xtb_interface/tmp/Gau-16187.EIn /home/pbeaujea/g2xtb_interface/tmp/Gau-16187.EOu /home/pbeaujea/g2xtb_interface/tmp/Gau-16187.EMs /home/pbeaujea/g2xtb_interface/tmp/Gau-16187.EFC /home/pbeaujea/g2xtb_interface/tmp/Gau-16187.EUF"
 running g2xtb_interface interface.py
  
 Input geometry (charge=0)
 ---------------------------------------
                Coordinates (Bohr)
 Z         X           Y           Z
 ---------------------------------------
 7    0.00000000  0.00000000 -0.11409159
 1   -1.81728100  0.00000000  0.52840937
 1    0.90864050 -1.57381151  0.52840937
 1    0.90864050  1.57381151  0.52840937
 ---------------------------------------
  
  Solvent             : h2o
  Using internal parameter file: .param_gbsa2_h2o
  Gsolv ref. state (COSMO-RS): gsolv [1 M gas/solution]
  temperature (mdtemp)       :    300.000000000000
  dielectric constant        :    80.2000000000000
  rho                        :    1.00000000000000
  mass                       :    18.0000000000000
  surface tension            :    15.5689454083859
  probe radius               :   0.975313790000000
  vdW radii scaling          :    1.00000000000000
  Gshift (Eh)                :   1.857443126794793E-003
  c1                         :    1.55243817000000
  soset                      :   0.130326360000000
  HB correction              :  T
    1     -4.4815520 -0.448155E+01  0.200E+00   12.26       0.0  T
    2     -4.4824219 -0.869904E-03  0.118E+00   11.96       1.0  T
    3     -4.4825227 -0.100858E-03  0.288E-01   11.72       1.0  T
    4     -4.4825423 -0.195395E-04  0.450E-02   11.73       1.1  T
    5     -4.4825424 -0.757640E-07  0.103E-02   11.72       4.9  T
    6     -4.4825424 -0.787576E-07  0.119E-03   11.72      41.9  T
    7     -4.4825424 -0.823448E-10  0.946E-05   11.72     528.5  T
    8     -4.4825424 -0.579536E-11  0.144E-07   11.72  100000.0  T
      SCC iter.                  ...        0 min,  0.002 sec
      gradient                   ...        0 min,  0.000 sec
          :::::::::::::::::::::::::::::::::::::::::::::::::::::
          :: total energy               -4.430185018201 Eh   ::
          :: gradient norm               0.016652656274 Eh/α ::
          :: HOMO-LUMO gap              11.720225795268 eV   ::
          :::::::::::::::::::::::::::::::::::::::::::::::::::::
  
  
 Output gradient
 ----------------------------------------
              Forces (Hartree/Bohr)
            X           Y           Z
 ----------------------------------------
 0     0.00001184  0.00000000  0.00155169
 1    -0.00956886 -0.00000000 -0.00051402
 2     0.00477851 -0.00827252 -0.00051884
 3     0.00477851  0.00827252 -0.00051884
 ----------------------------------------
  
 ExternalExternalExternalExternalExternalExternalExternalExternalExternalExternal

 Recovered energy= -4.43018501820     dipole=      0.000004258258      0.000000000000      0.684082662460
 NRF= 0 NRA=   0 NVA=   4 HaveQM=F NVQ=       0
 Convergence limit is  0.750E-04 MaxStp= 10000 StMxLn= 3.00D-04 StpMin= 1.00D-06.
 Convergence criteria             0.00011250 0.00007500 0.00045000 0.00030000
  Step  NS  ND Rises OKQ   Scale  Max. Force  RMS Force Max. Disp.  RMS Disp.     Energy   Flag
     1   0   0   F    T  1.00D+00 0.00956886 0.00480721 0.00956886 0.00480721   -4.4301850 ----

 ExternalExternalExternalExternalExternalExternalExternalExternalExternalExternal
 Output from external command:
 "/home/pbeaujea/g2xtb_interface/interface.py -s h2o R /home/pbeaujea/g2xtb_interface/tmp/Gau-16187.EIn /home/pbeaujea/g2xtb_interface/tmp/Gau-16187.EOu /home/pbeaujea/g2xtb_interface/tmp/Gau-16187.EMs /home/pbeaujea/g2xtb_interface/tmp/Gau-16187.EFC /home/pbeaujea/g2xtb_interface/tmp/Gau-16187.EUF"
 running g2xtb_interface interface.py
  
 Input geometry (charge=0)
 ---------------------------------------
                Coordinates (Bohr)
 Z         X           Y           Z
 ---------------------------------------
 7   -0.00001184 -0.00000000 -0.11564328
 1   -1.80771214  0.00000000  0.52892339
 1    0.90386199 -1.56553899  0.52892821
 1    0.90386199  1.56553899  0.52892821
 ---------------------------------------
  
  Solvent             : h2o
  Using internal parameter file: .param_gbsa2_h2o
  Gsolv ref. state (COSMO-RS): gsolv [1 M gas/solution]
  temperature (mdtemp)       :    300.000000000000
  dielectric constant        :    80.2000000000000
  rho                        :    1.00000000000000
  mass                       :    18.0000000000000
  surface tension            :    15.5689454083859
  probe radius               :   0.975313790000000
  vdW radii scaling          :    1.00000000000000
  Gshift (Eh)                :   1.857443126794793E-003
  c1                         :    1.55243817000000
  soset                      :   0.130326360000000
  HB correction              :  T
    1     -4.4845311 -0.448453E+01  0.194E+00   12.28       0.0  T
    2     -4.4847357 -0.204597E-03  0.117E+00   12.10       1.0  T
    3     -4.4847908 -0.551164E-04  0.135E-01   11.90       1.0  T
    4     -4.4847966 -0.584753E-05  0.404E-02   11.92       1.2  T
    5     -4.4847967 -0.104903E-06  0.354E-03   11.91      14.1  T
    6     -4.4847967 -0.193608E-08  0.112E-03   11.91      44.8  T
    7     -4.4847967 -0.456133E-10  0.781E-06   11.91    6403.5  T
    8     -4.4847967 -0.115463E-13  0.163E-07   11.91  100000.0  T
      SCC iter.                  ...        0 min,  0.002 sec
      gradient                   ...        0 min,  0.000 sec
          :::::::::::::::::::::::::::::::::::::::::::::::::::::
          :: total energy               -4.430413396720 Eh   ::
          :: gradient norm               0.011245858719 Eh/α ::
          :: HOMO-LUMO gap              11.914548205294 eV   ::
          :::::::::::::::::::::::::::::::::::::::::::::::::::::
  
  
 Output gradient
 ----------------------------------------
              Forces (Hartree/Bohr)
            X           Y           Z
 ----------------------------------------
 0     0.00000193 -0.00000000  0.00385288
 1    -0.00596612  0.00000000 -0.00128488
 2     0.00298210 -0.00516217 -0.00128400
 3     0.00298210  0.00516217 -0.00128400
 ----------------------------------------
  
 ExternalExternalExternalExternalExternalExternalExternalExternalExternalExternal

     2   0   0   F    F  1.75D+00 0.00956886 0.00480721 0.01673638 0.00840803   -4.4304134 ----

 ExternalExternalExternalExternalExternalExternalExternalExternalExternalExternal
 Output from external command:
 "/home/pbeaujea/g2xtb_interface/interface.py -s h2o R /home/pbeaujea/g2xtb_interface/tmp/Gau-16187.EIn /home/pbeaujea/g2xtb_interface/tmp/Gau-16187.EOu /home/pbeaujea/g2xtb_interface/tmp/Gau-16187.EMs /home/pbeaujea/g2xtb_interface/tmp/Gau-16187.EFC /home/pbeaujea/g2xtb_interface/tmp/Gau-16187.EUF"
 running g2xtb_interface interface.py
  
 Input geometry (charge=0)
 ---------------------------------------
                Coordinates (Bohr)
 Z         X           Y           Z
 ---------------------------------------
 7   -0.00003255 -0.00000000 -0.11835726
 1   -1.79097576  0.00000000  0.52982242
 1    0.89550415 -1.55106998  0.52983568
 1    0.89550415  1.55106998  0.52983568
 ---------------------------------------
  
  Solvent             : h2o
  Using internal parameter file: .param_gbsa2_h2o
  Gsolv ref. state (COSMO-RS): gsolv [1 M gas/solution]
  temperature (mdtemp)       :    300.000000000000
  dielectric constant        :    80.2000000000000
  rho                        :    1.00000000000000
  mass                       :    18.0000000000000
  surface tension            :    15.5689454083859
  probe radius               :   0.975313790000000
  vdW radii scaling          :    1.00000000000000
  Gshift (Eh)                :   1.857443126794793E-003
  c1                         :    1.55243817000000
  soset                      :   0.130326360000000
  HB correction              :  T
    1     -4.4884210 -0.448842E+01  0.196E+00   12.63       0.0  T
    2     -4.4886118 -0.190871E-03  0.118E+00   12.45       1.0  T
    3     -4.4886659 -0.540927E-04  0.132E-01   12.25       1.0  T
    4     -4.4886713 -0.538925E-05  0.392E-02   12.27       1.3  T
    5     -4.4886714 -0.103677E-06  0.351E-03   12.26      14.2  T
    6     -4.4886714 -0.166100E-08  0.106E-03   12.26      47.0  T
    7     -4.4886714 -0.426219E-10  0.756E-06   12.26    6615.8  T
    8     -4.4886714 -0.115463E-13  0.159E-07   12.26  100000.0  T
      SCC iter.                  ...        0 min,  0.002 sec
      gradient                   ...        0 min,  0.000 sec
          :::::::::::::::::::::::::::::::::::::::::::::::::::::
          :: total energy               -4.430571178713 Eh   ::
          :: gradient norm               0.009547973270 Eh/α ::
          :: HOMO-LUMO gap              12.261807852528 eV   ::
          :::::::::::::::::::::::::::::::::::::::::::::::::::::
  
  
 Output gradient
 ----------------------------------------
              Forces (Hartree/Bohr)
            X           Y           Z
 ----------------------------------------
 0    -0.00001697 -0.00000000  0.00822042
 1     0.00060593  0.00000000 -0.00274903
 2    -0.00029448  0.00051106 -0.00273570
 3    -0.00029448 -0.00051106 -0.00273570
 ----------------------------------------
  
 ExternalExternalExternalExternalExternalExternalExternalExternalExternalExternal

     3   0   0   F    T  4.16D+00 0.00822042 0.00275626 0.03631544 0.01321523   -4.4305712 ----

 ExternalExternalExternalExternalExternalExternalExternalExternalExternalExternal
 Output from external command:
 "/home/pbeaujea/g2xtb_interface/interface.py -s h2o R /home/pbeaujea/g2xtb_interface/tmp/Gau-16187.EIn /home/pbeaujea/g2xtb_interface/tmp/Gau-16187.EOu /home/pbeaujea/g2xtb_interface/tmp/Gau-16187.EMs /home/pbeaujea/g2xtb_interface/tmp/Gau-16187.EFC /home/pbeaujea/g2xtb_interface/tmp/Gau-16187.EUF"
 running g2xtb_interface interface.py
  
 Input geometry (charge=0)
 ---------------------------------------
                Coordinates (Bohr)
 Z         X           Y           Z
 ---------------------------------------
 7    0.00002184  0.00000000 -0.15467270
 1   -1.78040309 -0.00000000  0.54196013
 1    0.89019062 -1.54187649  0.54192455
 1    0.89019062  1.54187649  0.54192455
 ---------------------------------------
  
  Solvent             : h2o
  Using internal parameter file: .param_gbsa2_h2o
  Gsolv ref. state (COSMO-RS): gsolv [1 M gas/solution]
  temperature (mdtemp)       :    300.000000000000
  dielectric constant        :    80.2000000000000
  rho                        :    1.00000000000000
  mass                       :    18.0000000000000
  surface tension            :    15.5689454083859
  probe radius               :   0.975313790000000
  vdW radii scaling          :    1.00000000000000
  Gshift (Eh)                :   1.857443126794793E-003
  c1                         :    1.55243817000000
  soset                      :   0.130326360000000
  HB correction              :  T
    1     -4.4869183 -0.448692E+01  0.197E+00   12.73       0.0  T
    2     -4.4870570 -0.138728E-03  0.119E+00   12.58       1.0  T
    3     -4.4871065 -0.494918E-04  0.115E-01   12.39       1.0  T
    4     -4.4871097 -0.312579E-05  0.365E-02   12.40       1.4  T
    5     -4.4871098 -0.102252E-06  0.304E-03   12.40      16.5  T
    6     -4.4871098 -0.209261E-09  0.964E-04   12.40      51.9  T
    7     -4.4871098 -0.373612E-10  0.533E-06   12.40    9372.4  T
      SCC iter.                  ...        0 min,  0.002 sec
      gradient                   ...        0 min,  0.000 sec
          :::::::::::::::::::::::::::::::::::::::::::::::::::::
          :: total energy               -4.430805208379 Eh   ::
          :: gradient norm               0.001829083023 Eh/α ::
          :: HOMO-LUMO gap              12.398316970447 eV   ::
          :::::::::::::::::::::::::::::::::::::::::::::::::::::
  
  
 Output gradient
 ----------------------------------------
              Forces (Hartree/Bohr)
            X           Y           Z
 ----------------------------------------
 0     0.00005531 -0.00000000  0.00157055
 1    -0.00016137  0.00000000 -0.00051112
 2     0.00005303 -0.00010434 -0.00052971
 3     0.00005303  0.00010434 -0.00052971
 ----------------------------------------
  
 ExternalExternalExternalExternalExternalExternalExternalExternalExternalExternal

     4   0   0   F    F  2.42D-01 0.00822042 0.00275626 0.00877426 0.00319296   -4.4308052 ----

 ExternalExternalExternalExternalExternalExternalExternalExternalExternalExternal
 Output from external command:
 "/home/pbeaujea/g2xtb_interface/interface.py -s h2o R /home/pbeaujea/g2xtb_interface/tmp/Gau-16187.EIn /home/pbeaujea/g2xtb_interface/tmp/Gau-16187.EOu /home/pbeaujea/g2xtb_interface/tmp/Gau-16187.EMs /home/pbeaujea/g2xtb_interface/tmp/Gau-16187.EFC /home/pbeaujea/g2xtb_interface/tmp/Gau-16187.EUF"
 running g2xtb_interface interface.py
  
 Input geometry (charge=0)
 ---------------------------------------
                Coordinates (Bohr)
 Z         X           Y           Z
 ---------------------------------------
 7    0.00003498  0.00000000 -0.16344696
 1   -1.77784860 -0.00000000  0.54489275
 1    0.88890681 -1.53965522  0.54484537
 1    0.88890681  1.53965522  0.54484537
 ---------------------------------------
  
  Solvent             : h2o
  Using internal parameter file: .param_gbsa2_h2o
  Gsolv ref. state (COSMO-RS): gsolv [1 M gas/solution]
  temperature (mdtemp)       :    300.000000000000
  dielectric constant        :    80.2000000000000
  rho                        :    1.00000000000000
  mass                       :    18.0000000000000
  surface tension            :    15.5689454083859
  probe radius               :   0.975313790000000
  vdW radii scaling          :    1.00000000000000
  Gshift (Eh)                :   1.857443126794793E-003
  c1                         :    1.55243817000000
  soset                      :   0.130326360000000
  HB correction              :  T
    1     -4.4864270 -0.448643E+01  0.197E+00   12.77       0.0  T
    2     -4.4865941 -0.167138E-03  0.119E+00   12.61       1.0  T
    3     -4.4866425 -0.483623E-04  0.123E-01   12.41       1.0  T
    4     -4.4866472 -0.468907E-05  0.376E-02   12.43       1.3  T
    5     -4.4866473 -0.882223E-07  0.319E-03   12.43      15.7  T
    6     -4.4866473 -0.820359E-09  0.946E-04   12.43      52.8  T
    7     -4.4866473 -0.363229E-10  0.627E-06   12.43    7968.8  T
      SCC iter.                  ...        0 min,  0.003 sec
      gradient                   ...        0 min,  0.000 sec
          :::::::::::::::::::::::::::::::::::::::::::::::::::::
          :: total energy               -4.430814963603 Eh   ::
          :: gradient norm               0.000651965099 Eh/α ::
          :: HOMO-LUMO gap              12.427387654296 eV   ::
          :::::::::::::::::::::::::::::::::::::::::::::::::::::
  
  
 Output gradient
 ----------------------------------------
              Forces (Hartree/Bohr)
            X           Y           Z
 ----------------------------------------
 0     0.00006916  0.00000000 -0.00022407
 1    -0.00037887  0.00000000  0.00009286
 2     0.00015485 -0.00028403  0.00006560
 3     0.00015485  0.00028403  0.00006560
 ----------------------------------------
  
 ExternalExternalExternalExternalExternalExternalExternalExternalExternalExternal

     5   0   0   F    T  7.32D+01 0.00037887 0.00018821 0.03485297 0.01640820   -4.4308150 ----

 ExternalExternalExternalExternalExternalExternalExternalExternalExternalExternal
 Output from external command:
 "/home/pbeaujea/g2xtb_interface/interface.py -s h2o R /home/pbeaujea/g2xtb_interface/tmp/Gau-16187.EIn /home/pbeaujea/g2xtb_interface/tmp/Gau-16187.EOu /home/pbeaujea/g2xtb_interface/tmp/Gau-16187.EMs /home/pbeaujea/g2xtb_interface/tmp/Gau-16187.EFC /home/pbeaujea/g2xtb_interface/tmp/Gau-16187.EUF"
 running g2xtb_interface interface.py
  
 Input geometry (charge=0)
 ---------------------------------------
                Coordinates (Bohr)
 Z         X           Y           Z
 ---------------------------------------
 7   -0.00498933 -0.00000000 -0.17153359
 1   -1.74299563 -0.00000000  0.54628013
 1    0.87399248 -1.51267243  0.54819499
 1    0.87399248  1.51267243  0.54819499
 ---------------------------------------
  
  Solvent             : h2o
  Using internal parameter file: .param_gbsa2_h2o
  Gsolv ref. state (COSMO-RS): gsolv [1 M gas/solution]
  temperature (mdtemp)       :    300.000000000000
  dielectric constant        :    80.2000000000000
  rho                        :    1.00000000000000
  mass                       :    18.0000000000000
  surface tension            :    15.5689454083859
  probe radius               :   0.975313790000000
  vdW radii scaling          :    1.00000000000000
  Gshift (Eh)                :   1.857443126794793E-003
  c1                         :    1.55243817000000
  soset                      :   0.130326360000000
  HB correction              :  T
    1     -4.4928444 -0.449284E+01  0.202E+00   13.46       0.0  T
    2     -4.4930290 -0.184513E-03  0.122E+00   13.29       1.0  T
    3     -4.4930760 -0.470918E-04  0.127E-01   13.08       1.0  T
    4     -4.4930819 -0.588162E-05  0.364E-02   13.10       1.4  T
    5     -4.4930820 -0.774045E-07  0.356E-03   13.09      14.0  T
    6     -4.4930820 -0.186652E-08  0.839E-04   13.09      59.6  T
    7     -4.4930820 -0.304334E-10  0.852E-06   13.09    5869.6  T
      SCC iter.                  ...        0 min,  0.002 sec
      gradient                   ...        0 min,  0.000 sec
          :::::::::::::::::::::::::::::::::::::::::::::::::::::
          :: total energy               -4.430275394556 Eh   ::
          :: gradient norm               0.024283056274 Eh/α ::
          :: HOMO-LUMO gap              13.094336365274 eV   ::
          :::::::::::::::::::::::::::::::::::::::::::::::::::::
  
  
 Output gradient
 ----------------------------------------
              Forces (Hartree/Bohr)
            X           Y           Z
 ----------------------------------------
 0    -0.00504152 -0.00000000  0.00860686
 1     0.01537378  0.00000000 -0.00426620
 2    -0.00516613  0.00929570 -0.00217033
 3    -0.00516613 -0.00929570 -0.00217033
 ----------------------------------------
  
 ExternalExternalExternalExternalExternalExternalExternalExternalExternalExternal

     6   0   0   T    F  2.80D-02 0.00037887 0.00018821 0.00097715 0.00046003   -4.4302754 ----

 ExternalExternalExternalExternalExternalExternalExternalExternalExternalExternal
 Output from external command:
 "/home/pbeaujea/g2xtb_interface/interface.py -s h2o R /home/pbeaujea/g2xtb_interface/tmp/Gau-16187.EIn /home/pbeaujea/g2xtb_interface/tmp/Gau-16187.EOu /home/pbeaujea/g2xtb_interface/tmp/Gau-16187.EMs /home/pbeaujea/g2xtb_interface/tmp/Gau-16187.EFC /home/pbeaujea/g2xtb_interface/tmp/Gau-16187.EUF"
 running g2xtb_interface interface.py
  
 Input geometry (charge=0)
 ---------------------------------------
                Coordinates (Bohr)
 Z         X           Y           Z
 ---------------------------------------
 7   -0.00010588 -0.00000000 -0.16367368
 1   -1.77687145 -0.00000000  0.54493165
 1    0.88848867 -1.53889872  0.54493928
 1    0.88848867  1.53889872  0.54493928
 ---------------------------------------
  
  Solvent             : h2o
  Using internal parameter file: .param_gbsa2_h2o
  Gsolv ref. state (COSMO-RS): gsolv [1 M gas/solution]
  temperature (mdtemp)       :    300.000000000000
  dielectric constant        :    80.2000000000000
  rho                        :    1.00000000000000
  mass                       :    18.0000000000000
  surface tension            :    15.5689454083859
  probe radius               :   0.975313790000000
  vdW radii scaling          :    1.00000000000000
  Gshift (Eh)                :   1.857443126794793E-003
  c1                         :    1.55243817000000
  soset                      :   0.130326360000000
  HB correction              :  T
    1     -4.4866499 -0.448665E+01  0.198E+00   12.77       0.0  T
    2     -4.4867828 -0.132930E-03  0.119E+00   12.62       1.0  T
    3     -4.4868300 -0.472398E-04  0.113E-01   12.44       1.0  T
    4     -4.4868330 -0.297900E-05  0.356E-02   12.45       1.4  T
    5     -4.4868331 -0.984743E-07  0.296E-03   12.45      16.9  T
    6     -4.4868331 -0.215595E-09  0.938E-04   12.45      53.3  T
    7     -4.4868331 -0.359632E-10  0.519E-06   12.45    9643.1  T
      SCC iter.                  ...        0 min,  0.002 sec
      gradient                   ...        0 min,  0.000 sec
          :::::::::::::::::::::::::::::::::::::::::::::::::::::
          :: total energy               -4.430815399942 Eh   ::
          :: gradient norm               0.000085573133 Eh/α ::
          :: HOMO-LUMO gap              12.445764941381 eV   ::
          :::::::::::::::::::::::::::::::::::::::::::::::::::::
  
  
 Output gradient
 ----------------------------------------
              Forces (Hartree/Bohr)
            X           Y           Z
 ----------------------------------------
 0    -0.00006237  0.00000000  0.00000021
 1     0.00003873 -0.00000000 -0.00001682
 2     0.00001182 -0.00002482  0.00000831
 3     0.00001182  0.00002482  0.00000831
 ----------------------------------------
  
 ExternalExternalExternalExternalExternalExternalExternalExternalExternalExternal

     7   0   0   F    T  1.83D+01 0.00006237 0.00002470 0.00111359 0.00046003   -4.4308154 ++--

 ExternalExternalExternalExternalExternalExternalExternalExternalExternalExternal
 Output from external command:
 "/home/pbeaujea/g2xtb_interface/interface.py -s h2o R /home/pbeaujea/g2xtb_interface/tmp/Gau-16187.EIn /home/pbeaujea/g2xtb_interface/tmp/Gau-16187.EOu /home/pbeaujea/g2xtb_interface/tmp/Gau-16187.EMs /home/pbeaujea/g2xtb_interface/tmp/Gau-16187.EFC /home/pbeaujea/g2xtb_interface/tmp/Gau-16187.EUF"
 running g2xtb_interface interface.py
  
 Input geometry (charge=0)
 ---------------------------------------
                Coordinates (Bohr)
 Z         X           Y           Z
 ---------------------------------------
 7    0.00100770 -0.00000000 -0.16372066
 1   -1.77739379  0.00000000  0.54524668
 1    0.88819304 -1.53830105  0.54480525
 1    0.88819304  1.53830105  0.54480525
 ---------------------------------------
  
  Solvent             : h2o
  Using internal parameter file: .param_gbsa2_h2o
  Gsolv ref. state (COSMO-RS): gsolv [1 M gas/solution]
  temperature (mdtemp)       :    300.000000000000
  dielectric constant        :    80.2000000000000
  rho                        :    1.00000000000000
  mass                       :    18.0000000000000
  surface tension            :    15.5689454083859
  probe radius               :   0.975313790000000
  vdW radii scaling          :    1.00000000000000
  Gshift (Eh)                :   1.857443126794793E-003
  c1                         :    1.55243817000000
  soset                      :   0.130326360000000
  HB correction              :  T
    1     -4.4866617 -0.448666E+01  0.198E+00   12.80       0.0  T
    2     -4.4868374 -0.175738E-03  0.119E+00   12.63       1.0  T
    3     -4.4868858 -0.483509E-04  0.125E-01   12.44       1.0  T
    4     -4.4868909 -0.511872E-05  0.377E-02   12.46       1.3  T
    5     -4.4868910 -0.864988E-07  0.326E-03   12.45      15.3  T
    6     -4.4868910 -0.114141E-08  0.945E-04   12.45      52.9  T
    7     -4.4868910 -0.362368E-10  0.664E-06   12.45    7527.0  T
      SCC iter.                  ...        0 min,  0.002 sec
      gradient                   ...        0 min,  0.000 sec
          :::::::::::::::::::::::::::::::::::::::::::::::::::::
          :: total energy               -4.430814371285 Eh   ::
          :: gradient norm               0.001407665728 Eh/α ::
          :: HOMO-LUMO gap              12.451180343886 eV   ::
          :::::::::::::::::::::::::::::::::::::::::::::::::::::
  
  
 Output gradient
 ----------------------------------------
              Forces (Hartree/Bohr)
            X           Y           Z
 ----------------------------------------
 0     0.00106573 -0.00000000  0.00007520
 1    -0.00057721  0.00000000  0.00025808
 2    -0.00024426  0.00036431 -0.00016664
 3    -0.00024426 -0.00036431 -0.00016664
 ----------------------------------------
  
 ExternalExternalExternalExternalExternalExternalExternalExternalExternalExternal

     8   0   0   T    T  1.00D+00 0.00106573 0.00040636 0.00106573 0.00040636   -4.4308144 ----

 ExternalExternalExternalExternalExternalExternalExternalExternalExternalExternal
 Output from external command:
 "/home/pbeaujea/g2xtb_interface/interface.py -s h2o R /home/pbeaujea/g2xtb_interface/tmp/Gau-16187.EIn /home/pbeaujea/g2xtb_interface/tmp/Gau-16187.EOu /home/pbeaujea/g2xtb_interface/tmp/Gau-16187.EMs /home/pbeaujea/g2xtb_interface/tmp/Gau-16187.EFC /home/pbeaujea/g2xtb_interface/tmp/Gau-16187.EUF"
 running g2xtb_interface interface.py
  
 Input geometry (charge=0)
 ---------------------------------------
                Coordinates (Bohr)
 Z         X           Y           Z
 ---------------------------------------
 7   -0.00117161  0.00000000 -0.16374888
 1   -1.77629423 -0.00000000  0.54467357
 1    0.88873292 -1.53926304  0.54510592
 1    0.88873292  1.53926304  0.54510592
 ---------------------------------------
  
  Solvent             : h2o
  Using internal parameter file: .param_gbsa2_h2o
  Gsolv ref. state (COSMO-RS): gsolv [1 M gas/solution]
  temperature (mdtemp)       :    300.000000000000
  dielectric constant        :    80.2000000000000
  rho                        :    1.00000000000000
  mass                       :    18.0000000000000
  surface tension            :    15.5689454083859
  probe radius               :   0.975313790000000
  vdW radii scaling          :    1.00000000000000
  Gshift (Eh)                :   1.857443126794793E-003
  c1                         :    1.55243817000000
  soset                      :   0.130326360000000
  HB correction              :  T
    1     -4.4865714 -0.448657E+01  0.198E+00   12.79       0.0  T
    2     -4.4867465 -0.175107E-03  0.119E+00   12.63       1.0  T
    3     -4.4867949 -0.483384E-04  0.125E-01   12.43       1.0  T
    4     -4.4867999 -0.508586E-05  0.377E-02   12.45       1.3  T
    5     -4.4868000 -0.866260E-07  0.326E-03   12.44      15.4  T
    6     -4.4868000 -0.111704E-08  0.945E-04   12.44      52.9  T
    7     -4.4868000 -0.362856E-10  0.669E-06   12.44    7470.7  T
      SCC iter.                  ...        0 min,  0.002 sec
      gradient                   ...        0 min,  0.000 sec
          :::::::::::::::::::::::::::::::::::::::::::::::::::::
          :: total energy               -4.430814319189 Eh   ::
          :: gradient norm               0.001453555644 Eh/α ::
          :: HOMO-LUMO gap              12.443277591499 eV   ::
          :::::::::::::::::::::::::::::::::::::::::::::::::::::
  
  
 Output gradient
 ----------------------------------------
              Forces (Hartree/Bohr)
            X           Y           Z
 ----------------------------------------
 0    -0.00110824  0.00000000 -0.00005319
 1     0.00064634 -0.00000000 -0.00027700
 2     0.00023095 -0.00033625  0.00016510
 3     0.00023095  0.00033625  0.00016510
 ----------------------------------------
  
 ExternalExternalExternalExternalExternalExternalExternalExternalExternalExternal

     9   0   0   T    F  5.00D-01 0.00106573 0.00040636 0.00053286 0.00020318   -4.4308143 ---+

 ExternalExternalExternalExternalExternalExternalExternalExternalExternalExternal
 Output from external command:
 "/home/pbeaujea/g2xtb_interface/interface.py -s h2o R /home/pbeaujea/g2xtb_interface/tmp/Gau-16187.EIn /home/pbeaujea/g2xtb_interface/tmp/Gau-16187.EOu /home/pbeaujea/g2xtb_interface/tmp/Gau-16187.EMs /home/pbeaujea/g2xtb_interface/tmp/Gau-16187.EFC /home/pbeaujea/g2xtb_interface/tmp/Gau-16187.EUF"
 running g2xtb_interface interface.py
  
 Input geometry (charge=0)
 ---------------------------------------
                Coordinates (Bohr)
 Z         X           Y           Z
 ---------------------------------------
 7   -0.00063875 -0.00000000 -0.16371128
 1   -1.77658284 -0.00000000  0.54480261
 1    0.88861079 -1.53908088  0.54502260
 1    0.88861079  1.53908088  0.54502260
 ---------------------------------------
  
  Solvent             : h2o
  Using internal parameter file: .param_gbsa2_h2o
  Gsolv ref. state (COSMO-RS): gsolv [1 M gas/solution]
  temperature (mdtemp)       :    300.000000000000
  dielectric constant        :    80.2000000000000
  rho                        :    1.00000000000000
  mass                       :    18.0000000000000
  surface tension            :    15.5689454083859
  probe radius               :   0.975313790000000
  vdW radii scaling          :    1.00000000000000
  Gshift (Eh)                :   1.857443126794793E-003
  c1                         :    1.55243817000000
  soset                      :   0.130326360000000
  HB correction              :  T
    1     -4.4865871 -0.448659E+01  0.198E+00   12.79       0.0  T
    2     -4.4867631 -0.175935E-03  0.119E+00   12.63       1.0  T
    3     -4.4868114 -0.483629E-04  0.125E-01   12.43       1.0  T
    4     -4.4868165 -0.512525E-05  0.378E-02   12.45       1.3  T
    5     -4.4868166 -0.864885E-07  0.326E-03   12.44      15.3  T
    6     -4.4868166 -0.114463E-08  0.946E-04   12.44      52.9  T
    7     -4.4868166 -0.362856E-10  0.661E-06   12.44    7569.1  T
      SCC iter.                  ...        0 min,  0.002 sec
      gradient                   ...        0 min,  0.000 sec
          :::::::::::::::::::::::::::::::::::::::::::::::::::::
          :: total energy               -4.430815099908 Eh   ::
          :: gradient norm               0.000768914913 Eh/α ::
          :: HOMO-LUMO gap              12.444556106299 eV   ::
          :::::::::::::::::::::::::::::::::::::::::::::::::::::
  
  
 Output gradient
 ----------------------------------------
              Forces (Hartree/Bohr)
            X           Y           Z
 ----------------------------------------
 0    -0.00058492 -0.00000000 -0.00002686
 1     0.00034207  0.00000000 -0.00014669
 2     0.00012143 -0.00018070  0.00008677
 3     0.00012143  0.00018070  0.00008677
 ----------------------------------------
  
 ExternalExternalExternalExternalExternalExternalExternalExternalExternalExternal

    10   0   0   T    F  5.00D-01 0.00106573 0.00040636 0.00026643 0.00010159   -4.4308151 --++

 ExternalExternalExternalExternalExternalExternalExternalExternalExternalExternal
 Output from external command:
 "/home/pbeaujea/g2xtb_interface/interface.py -s h2o R /home/pbeaujea/g2xtb_interface/tmp/Gau-16187.EIn /home/pbeaujea/g2xtb_interface/tmp/Gau-16187.EOu /home/pbeaujea/g2xtb_interface/tmp/Gau-16187.EMs /home/pbeaujea/g2xtb_interface/tmp/Gau-16187.EFC /home/pbeaujea/g2xtb_interface/tmp/Gau-16187.EUF"
 running g2xtb_interface interface.py
  
 Input geometry (charge=0)
 ---------------------------------------
                Coordinates (Bohr)
 Z         X           Y           Z
 ---------------------------------------
 7   -0.00037232 -0.00000000 -0.16369248
 1   -1.77672714 -0.00000000  0.54486713
 1    0.88854973 -1.53898980  0.54498094
 1    0.88854973  1.53898980  0.54498094
 ---------------------------------------
  
  Solvent             : h2o
  Using internal parameter file: .param_gbsa2_h2o
  Gsolv ref. state (COSMO-RS): gsolv [1 M gas/solution]
  temperature (mdtemp)       :    300.000000000000
  dielectric constant        :    80.2000000000000
  rho                        :    1.00000000000000
  mass                       :    18.0000000000000
  surface tension            :    15.5689454083859
  probe radius               :   0.975313790000000
  vdW radii scaling          :    1.00000000000000
  Gshift (Eh)                :   1.857443126794793E-003
  c1                         :    1.55243817000000
  soset                      :   0.130326360000000
  HB correction              :  T
    1     -4.4865955 -0.448660E+01  0.198E+00   12.80       0.0  T
    2     -4.4867713 -0.175800E-03  0.119E+00   12.63       1.0  T
    3     -4.4868197 -0.483611E-04  0.125E-01   12.43       1.0  T
    4     -4.4868248 -0.511894E-05  0.378E-02   12.45       1.3  T
    5     -4.4868249 -0.865214E-07  0.326E-03   12.44      15.3  T
    6     -4.4868249 -0.114051E-08  0.946E-04   12.45      52.9  T
    7     -4.4868249 -0.362794E-10  0.659E-06   12.45    7583.4  T
      SCC iter.                  ...        0 min,  0.002 sec
      gradient                   ...        0 min,  0.000 sec
          :::::::::::::::::::::::::::::::::::::::::::::::::::::
          :: total energy               -4.430815309979 Eh   ::
          :: gradient norm               0.000426950218 Eh/α ::
          :: HOMO-LUMO gap              12.445169327629 eV   ::
          :::::::::::::::::::::::::::::::::::::::::::::::::::::
  
  
 Output gradient
 ----------------------------------------
              Forces (Hartree/Bohr)
            X           Y           Z
 ----------------------------------------
 0    -0.00032355  0.00000000 -0.00001342
 1     0.00019028  0.00000000 -0.00008170
 2     0.00006663 -0.00010280  0.00004756
 3     0.00006663  0.00010280  0.00004756
 ----------------------------------------
  
 ExternalExternalExternalExternalExternalExternalExternalExternalExternalExternal

    11   0   0   T    F  5.00D-01 0.00106573 0.00040636 0.00013322 0.00005079   -4.4308153 --++

 ExternalExternalExternalExternalExternalExternalExternalExternalExternalExternal
 Output from external command:
 "/home/pbeaujea/g2xtb_interface/interface.py -s h2o R /home/pbeaujea/g2xtb_interface/tmp/Gau-16187.EIn /home/pbeaujea/g2xtb_interface/tmp/Gau-16187.EOu /home/pbeaujea/g2xtb_interface/tmp/Gau-16187.EMs /home/pbeaujea/g2xtb_interface/tmp/Gau-16187.EFC /home/pbeaujea/g2xtb_interface/tmp/Gau-16187.EUF"
 running g2xtb_interface interface.py
  
 Input geometry (charge=0)
 ---------------------------------------
                Coordinates (Bohr)
 Z         X           Y           Z
 ---------------------------------------
 7   -0.00023910 -0.00000000 -0.16368308
 1   -1.77679930 -0.00000000  0.54489939
 1    0.88851920 -1.53894426  0.54496011
 1    0.88851920  1.53894426  0.54496011
 ---------------------------------------
  
  Solvent             : h2o
  Using internal parameter file: .param_gbsa2_h2o
  Gsolv ref. state (COSMO-RS): gsolv [1 M gas/solution]
  temperature (mdtemp)       :    300.000000000000
  dielectric constant        :    80.2000000000000
  rho                        :    1.00000000000000
  mass                       :    18.0000000000000
  surface tension            :    15.5689454083859
  probe radius               :   0.975313790000000
  vdW radii scaling          :    1.00000000000000
  Gshift (Eh)                :   1.857443126794793E-003
  c1                         :    1.55243817000000
  soset                      :   0.130326360000000
  HB correction              :  T
    1     -4.4865997 -0.448660E+01  0.198E+00   12.80       0.0  T
    2     -4.4867754 -0.175733E-03  0.119E+00   12.63       1.0  T
    3     -4.4868238 -0.483602E-04  0.125E-01   12.43       1.0  T
    4     -4.4868289 -0.511579E-05  0.378E-02   12.45       1.3  T
    5     -4.4868290 -0.865378E-07  0.326E-03   12.45      15.3  T
    6     -4.4868290 -0.113844E-08  0.945E-04   12.45      52.9  T
    7     -4.4868290 -0.362848E-10  0.659E-06   12.45    7589.0  T
      SCC iter.                  ...        0 min,  0.002 sec
      gradient                   ...        0 min,  0.000 sec
          :::::::::::::::::::::::::::::::::::::::::::::::::::::
          :: total energy               -4.430815369973 Eh   ::
          :: gradient norm               0.000256095196 Eh/α ::
          :: HOMO-LUMO gap              12.445469400431 eV   ::
          :::::::::::::::::::::::::::::::::::::::::::::::::::::
  
  
 Output gradient
 ----------------------------------------
              Forces (Hartree/Bohr)
            X           Y           Z
 ----------------------------------------
 0    -0.00019294 -0.00000000 -0.00000663
 1     0.00011448 -0.00000000 -0.00004925
 2     0.00003923 -0.00006382  0.00002794
 3     0.00003923  0.00006382  0.00002794
 ----------------------------------------
  
 ExternalExternalExternalExternalExternalExternalExternalExternalExternalExternal

    12   0   0   T    F  5.00D-01 0.00106573 0.00040636 0.00006661 0.00002540   -4.4308154 --++

 ExternalExternalExternalExternalExternalExternalExternalExternalExternalExternal
 Output from external command:
 "/home/pbeaujea/g2xtb_interface/interface.py -s h2o R /home/pbeaujea/g2xtb_interface/tmp/Gau-16187.EIn /home/pbeaujea/g2xtb_interface/tmp/Gau-16187.EOu /home/pbeaujea/g2xtb_interface/tmp/Gau-16187.EMs /home/pbeaujea/g2xtb_interface/tmp/Gau-16187.EFC /home/pbeaujea/g2xtb_interface/tmp/Gau-16187.EUF"
 running g2xtb_interface interface.py
  
 Input geometry (charge=0)
 ---------------------------------------
                Coordinates (Bohr)
 Z         X           Y           Z
 ---------------------------------------
 7   -0.00017249 -0.00000000 -0.16367838
 1   -1.77683537 -0.00000000  0.54491552
 1    0.88850393 -1.53892149  0.54494969
 1    0.88850393  1.53892149  0.54494969
 ---------------------------------------
  
  Solvent             : h2o
  Using internal parameter file: .param_gbsa2_h2o
  Gsolv ref. state (COSMO-RS): gsolv [1 M gas/solution]
  temperature (mdtemp)       :    300.000000000000
  dielectric constant        :    80.2000000000000
  rho                        :    1.00000000000000
  mass                       :    18.0000000000000
  surface tension            :    15.5689454083859
  probe radius               :   0.975313790000000
  vdW radii scaling          :    1.00000000000000
  Gshift (Eh)                :   1.857443126794793E-003
  c1                         :    1.55243817000000
  soset                      :   0.130326360000000
  HB correction              :  T
    1     -4.4866018 -0.448660E+01  0.198E+00   12.80       0.0  T
    2     -4.4867775 -0.175699E-03  0.119E+00   12.63       1.0  T
    3     -4.4868259 -0.483598E-04  0.125E-01   12.43       1.0  T
    4     -4.4868310 -0.511422E-05  0.378E-02   12.45       1.3  T
    5     -4.4868311 -0.865461E-07  0.326E-03   12.45      15.3  T
    6     -4.4868311 -0.113743E-08  0.945E-04   12.45      52.9  T
    7     -4.4868311 -0.362714E-10  0.659E-06   12.45    7591.5  T
      SCC iter.                  ...        0 min,  0.002 sec
      gradient                   ...        0 min,  0.000 sec
          :::::::::::::::::::::::::::::::::::::::::::::::::::::
          :: total energy               -4.430815388713 Eh   ::
          :: gradient norm               0.000170740920 Eh/α ::
          :: HOMO-LUMO gap              12.445617798554 eV   ::
          :::::::::::::::::::::::::::::::::::::::::::::::::::::
  
  
 Output gradient
 ----------------------------------------
              Forces (Hartree/Bohr)
            X           Y           Z
 ----------------------------------------
 0    -0.00012765 -0.00000000 -0.00000322
 1     0.00007660  0.00000000 -0.00003303
 2     0.00002553 -0.00004433  0.00001813
 3     0.00002553  0.00004433  0.00001813
 ----------------------------------------
  
 ExternalExternalExternalExternalExternalExternalExternalExternalExternalExternal

    13   0   0   T    F  5.00D-01 0.00106573 0.00040636 0.00003330 0.00001270   -4.4308154 --++

 ExternalExternalExternalExternalExternalExternalExternalExternalExternalExternal
 Output from external command:
 "/home/pbeaujea/g2xtb_interface/interface.py -s h2o R /home/pbeaujea/g2xtb_interface/tmp/Gau-16187.EIn /home/pbeaujea/g2xtb_interface/tmp/Gau-16187.EOu /home/pbeaujea/g2xtb_interface/tmp/Gau-16187.EMs /home/pbeaujea/g2xtb_interface/tmp/Gau-16187.EFC /home/pbeaujea/g2xtb_interface/tmp/Gau-16187.EUF"
 running g2xtb_interface interface.py
  
 Input geometry (charge=0)
 ---------------------------------------
                Coordinates (Bohr)
 Z         X           Y           Z
 ---------------------------------------
 7   -0.00013919 -0.00000000 -0.16367603
 1   -1.77685341 -0.00000000  0.54492359
 1    0.88849630 -1.53891011  0.54494449
 1    0.88849630  1.53891011  0.54494449
 ---------------------------------------
  
  Solvent             : h2o
  Using internal parameter file: .param_gbsa2_h2o
  Gsolv ref. state (COSMO-RS): gsolv [1 M gas/solution]
  temperature (mdtemp)       :    300.000000000000
  dielectric constant        :    80.2000000000000
  rho                        :    1.00000000000000
  mass                       :    18.0000000000000
  surface tension            :    15.5689454083859
  probe radius               :   0.975313790000000
  vdW radii scaling          :    1.00000000000000
  Gshift (Eh)                :   1.857443126794793E-003
  c1                         :    1.55243817000000
  soset                      :   0.130326360000000
  HB correction              :  T
    1     -4.4866029 -0.448660E+01  0.198E+00   12.80       0.0  T
    2     -4.4867785 -0.175682E-03  0.119E+00   12.63       1.0  T
    3     -4.4868269 -0.483596E-04  0.125E-01   12.43       1.0  T
    4     -4.4868320 -0.511344E-05  0.378E-02   12.45       1.3  T
    5     -4.4868321 -0.865502E-07  0.326E-03   12.45      15.3  T
    6     -4.4868321 -0.113691E-08  0.945E-04   12.45      52.9  T
    7     -4.4868321 -0.362750E-10  0.659E-06   12.45    7592.6  T
      SCC iter.                  ...        0 min,  0.002 sec
      gradient                   ...        0 min,  0.000 sec
          :::::::::::::::::::::::::::::::::::::::::::::::::::::
          :: total energy               -4.430815395270 Eh   ::
          :: gradient norm               0.000128113142 Eh/α ::
          :: HOMO-LUMO gap              12.445691587561 eV   ::
          :::::::::::::::::::::::::::::::::::::::::::::::::::::
  
  
 Output gradient
 ----------------------------------------
              Forces (Hartree/Bohr)
            X           Y           Z
 ----------------------------------------
 0    -0.00009501 -0.00000000 -0.00000151
 1     0.00005766  0.00000000 -0.00002493
 2     0.00001867 -0.00003457  0.00001322
 3     0.00001867  0.00003457  0.00001322
 ----------------------------------------
  
 ExternalExternalExternalExternalExternalExternalExternalExternalExternalExternal

    14   0   0   T    F  5.00D-01 0.00106573 0.00040636 0.00001665 0.00000635   -4.4308154 --++

 ExternalExternalExternalExternalExternalExternalExternalExternalExternalExternal
 Output from external command:
 "/home/pbeaujea/g2xtb_interface/interface.py -s h2o R /home/pbeaujea/g2xtb_interface/tmp/Gau-16187.EIn /home/pbeaujea/g2xtb_interface/tmp/Gau-16187.EOu /home/pbeaujea/g2xtb_interface/tmp/Gau-16187.EMs /home/pbeaujea/g2xtb_interface/tmp/Gau-16187.EFC /home/pbeaujea/g2xtb_interface/tmp/Gau-16187.EUF"
 running g2xtb_interface interface.py
  
 Input geometry (charge=0)
 ---------------------------------------
                Coordinates (Bohr)
 Z         X           Y           Z
 ---------------------------------------
 7   -0.00012254 -0.00000000 -0.16367486
 1   -1.77686243 -0.00000000  0.54492762
 1    0.88849248 -1.53890442  0.54494188
 1    0.88849248  1.53890442  0.54494188
 ---------------------------------------
  
  Solvent             : h2o
  Using internal parameter file: .param_gbsa2_h2o
  Gsolv ref. state (COSMO-RS): gsolv [1 M gas/solution]
  temperature (mdtemp)       :    300.000000000000
  dielectric constant        :    80.2000000000000
  rho                        :    1.00000000000000
  mass                       :    18.0000000000000
  surface tension            :    15.5689454083859
  probe radius               :   0.975313790000000
  vdW radii scaling          :    1.00000000000000
  Gshift (Eh)                :   1.857443126794793E-003
  c1                         :    1.55243817000000
  soset                      :   0.130326360000000
  HB correction              :  T
    1     -4.4866034 -0.448660E+01  0.198E+00   12.80       0.0  T
    2     -4.4867790 -0.175674E-03  0.119E+00   12.63       1.0  T
    3     -4.4868274 -0.483595E-04  0.125E-01   12.43       1.0  T
    4     -4.4868325 -0.511304E-05  0.378E-02   12.45       1.3  T
    5     -4.4868326 -0.865522E-07  0.326E-03   12.45      15.3  T
    6     -4.4868326 -0.113665E-08  0.945E-04   12.45      52.9  T
    7     -4.4868326 -0.362785E-10  0.658E-06   12.45    7593.1  T
      SCC iter.                  ...        0 min,  0.002 sec
      gradient                   ...        0 min,  0.000 sec
          :::::::::::::::::::::::::::::::::::::::::::::::::::::
          :: total energy               -4.430815397845 Eh   ::
          :: gradient norm               0.000106827090 Eh/α ::
          :: HOMO-LUMO gap              12.445728379493 eV   ::
          :::::::::::::::::::::::::::::::::::::::::::::::::::::
  
  
 Output gradient
 ----------------------------------------
              Forces (Hartree/Bohr)
            X           Y           Z
 ----------------------------------------
 0    -0.00007869 -0.00000000 -0.00000065
 1     0.00004820 -0.00000000 -0.00002088
 2     0.00001525 -0.00002970  0.00001076
 3     0.00001525  0.00002970  0.00001076
 ----------------------------------------
  
 ExternalExternalExternalExternalExternalExternalExternalExternalExternalExternal

    15   0   0   T    F  5.00D-01 0.00106573 0.00040636 0.00000833 0.00000317   -4.4308154 --++

 ExternalExternalExternalExternalExternalExternalExternalExternalExternalExternal
 Output from external command:
 "/home/pbeaujea/g2xtb_interface/interface.py -s h2o R /home/pbeaujea/g2xtb_interface/tmp/Gau-16187.EIn /home/pbeaujea/g2xtb_interface/tmp/Gau-16187.EOu /home/pbeaujea/g2xtb_interface/tmp/Gau-16187.EMs /home/pbeaujea/g2xtb_interface/tmp/Gau-16187.EFC /home/pbeaujea/g2xtb_interface/tmp/Gau-16187.EUF"
 running g2xtb_interface interface.py
  
 Input geometry (charge=0)
 ---------------------------------------
                Coordinates (Bohr)
 Z         X           Y           Z
 ---------------------------------------
 7   -0.00011421 -0.00000000 -0.16367427
 1   -1.77686694 -0.00000000  0.54492964
 1    0.88849057 -1.53890157  0.54494058
 1    0.88849057  1.53890157  0.54494058
 ---------------------------------------
  
  Solvent             : h2o
  Using internal parameter file: .param_gbsa2_h2o
  Gsolv ref. state (COSMO-RS): gsolv [1 M gas/solution]
  temperature (mdtemp)       :    300.000000000000
  dielectric constant        :    80.2000000000000
  rho                        :    1.00000000000000
  mass                       :    18.0000000000000
  surface tension            :    15.5689454083859
  probe radius               :   0.975313790000000
  vdW radii scaling          :    1.00000000000000
  Gshift (Eh)                :   1.857443126794793E-003
  c1                         :    1.55243817000000
  soset                      :   0.130326360000000
  HB correction              :  T
    1     -4.4866036 -0.448660E+01  0.198E+00   12.80       0.0  T
    2     -4.4867793 -0.175670E-03  0.119E+00   12.63       1.0  T
    3     -4.4868277 -0.483594E-04  0.125E-01   12.43       1.0  T
    4     -4.4868328 -0.511285E-05  0.378E-02   12.45       1.3  T
    5     -4.4868329 -0.865533E-07  0.326E-03   12.45      15.3  T
    6     -4.4868329 -0.113653E-08  0.945E-04   12.45      52.9  T
    7     -4.4868329 -0.362732E-10  0.658E-06   12.45    7593.4  T
      SCC iter.                  ...        0 min,  0.002 sec
      gradient                   ...        0 min,  0.000 sec
          :::::::::::::::::::::::::::::::::::::::::::::::::::::
          :: total energy               -4.430815398956 Eh   ::
          :: gradient norm               0.000096196172 Eh/α ::
          :: HOMO-LUMO gap              12.445746749820 eV   ::
          :::::::::::::::::::::::::::::::::::::::::::::::::::::
  
  
 Output gradient
 ----------------------------------------
              Forces (Hartree/Bohr)
            X           Y           Z
 ----------------------------------------
 0    -0.00007053 -0.00000000 -0.00000022
 1     0.00004346  0.00000000 -0.00001885
 2     0.00001353 -0.00002726  0.00000954
 3     0.00001353  0.00002726  0.00000954
 ----------------------------------------
  
 ExternalExternalExternalExternalExternalExternalExternalExternalExternalExternal

    16   0   0   T    F  5.00D-01 0.00106573 0.00040636 0.00000416 0.00000159   -4.4308154 --++

 ExternalExternalExternalExternalExternalExternalExternalExternalExternalExternal
 Output from external command:
 "/home/pbeaujea/g2xtb_interface/interface.py -s h2o R /home/pbeaujea/g2xtb_interface/tmp/Gau-16187.EIn /home/pbeaujea/g2xtb_interface/tmp/Gau-16187.EOu /home/pbeaujea/g2xtb_interface/tmp/Gau-16187.EMs /home/pbeaujea/g2xtb_interface/tmp/Gau-16187.EFC /home/pbeaujea/g2xtb_interface/tmp/Gau-16187.EUF"
 running g2xtb_interface interface.py
  
 Input geometry (charge=0)
 ---------------------------------------
                Coordinates (Bohr)
 Z         X           Y           Z
 ---------------------------------------
 7   -0.00011005 -0.00000000 -0.16367398
 1   -1.77686919 -0.00000000  0.54493064
 1    0.88848962 -1.53890015  0.54493993
 1    0.88848962  1.53890015  0.54493993
 ---------------------------------------
  
  Solvent             : h2o
  Using internal parameter file: .param_gbsa2_h2o
  Gsolv ref. state (COSMO-RS): gsolv [1 M gas/solution]
  temperature (mdtemp)       :    300.000000000000
  dielectric constant        :    80.2000000000000
  rho                        :    1.00000000000000
  mass                       :    18.0000000000000
  surface tension            :    15.5689454083859
  probe radius               :   0.975313790000000
  vdW radii scaling          :    1.00000000000000
  Gshift (Eh)                :   1.857443126794793E-003
  c1                         :    1.55243817000000
  soset                      :   0.130326360000000
  HB correction              :  T
    1     -4.4866038 -0.448660E+01  0.198E+00   12.80       0.0  T
    2     -4.4867794 -0.175668E-03  0.119E+00   12.63       1.0  T
    3     -4.4868278 -0.483594E-04  0.125E-01   12.43       1.0  T
    4     -4.4868329 -0.511275E-05  0.378E-02   12.45       1.3  T
    5     -4.4868330 -0.865538E-07  0.326E-03   12.45      15.3  T
    6     -4.4868330 -0.113646E-08  0.945E-04   12.45      52.9  T
    7     -4.4868330 -0.362794E-10  0.658E-06   12.45    7593.5  T
      SCC iter.                  ...        0 min,  0.002 sec
      gradient                   ...        0 min,  0.000 sec
          :::::::::::::::::::::::::::::::::::::::::::::::::::::
          :: total energy               -4.430815399468 Eh   ::
          :: gradient norm               0.000090884947 Eh/α ::
          :: HOMO-LUMO gap              12.445755928563 eV   ::
          :::::::::::::::::::::::::::::::::::::::::::::::::::::
  
  
 Output gradient
 ----------------------------------------
              Forces (Hartree/Bohr)
            X           Y           Z
 ----------------------------------------
 0    -0.00006645  0.00000000 -0.00000001
 1     0.00004110  0.00000000 -0.00001784
 2     0.00001268 -0.00002604  0.00000892
 3     0.00001268  0.00002604  0.00000892
 ----------------------------------------
  
 ExternalExternalExternalExternalExternalExternalExternalExternalExternalExternal

    17   0   0   T    F  5.00D-01 0.00106573 0.00040636 0.00000208 0.00000079   -4.4308154 --++

 ExternalExternalExternalExternalExternalExternalExternalExternalExternalExternal
 Output from external command:
 "/home/pbeaujea/g2xtb_interface/interface.py -s h2o R /home/pbeaujea/g2xtb_interface/tmp/Gau-16187.EIn /home/pbeaujea/g2xtb_interface/tmp/Gau-16187.EOu /home/pbeaujea/g2xtb_interface/tmp/Gau-16187.EMs /home/pbeaujea/g2xtb_interface/tmp/Gau-16187.EFC /home/pbeaujea/g2xtb_interface/tmp/Gau-16187.EUF"
 running g2xtb_interface interface.py
  
 Input geometry (charge=0)
 ---------------------------------------
                Coordinates (Bohr)
 Z         X           Y           Z
 ---------------------------------------
 7   -0.00010797 -0.00000000 -0.16367383
 1   -1.77687032 -0.00000000  0.54493115
 1    0.88848914 -1.53889943  0.54493961
 1    0.88848914  1.53889943  0.54493961
 ---------------------------------------
  
  Solvent             : h2o
  Using internal parameter file: .param_gbsa2_h2o
  Gsolv ref. state (COSMO-RS): gsolv [1 M gas/solution]
  temperature (mdtemp)       :    300.000000000000
  dielectric constant        :    80.2000000000000
  rho                        :    1.00000000000000
  mass                       :    18.0000000000000
  surface tension            :    15.5689454083859
  probe radius               :   0.975313790000000
  vdW radii scaling          :    1.00000000000000
  Gshift (Eh)                :   1.857443126794793E-003
  c1                         :    1.55243817000000
  soset                      :   0.130326360000000
  HB correction              :  T
    1     -4.4866038 -0.448660E+01  0.198E+00   12.80       0.0  T
    2     -4.4867795 -0.175666E-03  0.119E+00   12.63       1.0  T
    3     -4.4868279 -0.483594E-04  0.125E-01   12.43       1.0  T
    4     -4.4868330 -0.511270E-05  0.378E-02   12.45       1.3  T
    5     -4.4868331 -0.865540E-07  0.326E-03   12.45      15.3  T
    6     -4.4868331 -0.113643E-08  0.945E-04   12.45      52.9  T
    7     -4.4868331 -0.362785E-10  0.658E-06   12.45    7593.6  T
      SCC iter.                  ...        0 min,  0.002 sec
      gradient                   ...        0 min,  0.000 sec
          :::::::::::::::::::::::::::::::::::::::::::::::::::::
          :: total energy               -4.430815399713 Eh   ::
          :: gradient norm               0.000088230613 Eh/α ::
          :: HOMO-LUMO gap              12.445760516329 eV   ::
          :::::::::::::::::::::::::::::::::::::::::::::::::::::
  
  
 Output gradient
 ----------------------------------------
              Forces (Hartree/Bohr)
            X           Y           Z
 ----------------------------------------
 0    -0.00006441 -0.00000000  0.00000010
 1     0.00003991  0.00000000 -0.00001733
 2     0.00001225 -0.00002543  0.00000862
 3     0.00001225  0.00002543  0.00000862
 ----------------------------------------
  
 ExternalExternalExternalExternalExternalExternalExternalExternalExternalExternal

    18   0   0   T    F  5.00D-01 0.00106573 0.00040636 0.00000104 0.00000040   -4.4308154 --++

 ExternalExternalExternalExternalExternalExternalExternalExternalExternalExternal
 Output from external command:
 "/home/pbeaujea/g2xtb_interface/interface.py -s h2o R /home/pbeaujea/g2xtb_interface/tmp/Gau-16187.EIn /home/pbeaujea/g2xtb_interface/tmp/Gau-16187.EOu /home/pbeaujea/g2xtb_interface/tmp/Gau-16187.EMs /home/pbeaujea/g2xtb_interface/tmp/Gau-16187.EFC /home/pbeaujea/g2xtb_interface/tmp/Gau-16187.EUF"
 running g2xtb_interface interface.py
  
 Input geometry (charge=0)
 ---------------------------------------
                Coordinates (Bohr)
 Z         X           Y           Z
 ---------------------------------------
 7   -0.00010693 -0.00000000 -0.16367376
 1   -1.77687088 -0.00000000  0.54493140
 1    0.88848890 -1.53889908  0.54493944
 1    0.88848890  1.53889908  0.54493944
 ---------------------------------------
  
  Solvent             : h2o
  Using internal parameter file: .param_gbsa2_h2o
  Gsolv ref. state (COSMO-RS): gsolv [1 M gas/solution]
  temperature (mdtemp)       :    300.000000000000
  dielectric constant        :    80.2000000000000
  rho                        :    1.00000000000000
  mass                       :    18.0000000000000
  surface tension            :    15.5689454083859
  probe radius               :   0.975313790000000
  vdW radii scaling          :    1.00000000000000
  Gshift (Eh)                :   1.857443126794793E-003
  c1                         :    1.55243817000000
  soset                      :   0.130326360000000
  HB correction              :  T
    1     -4.4866039 -0.448660E+01  0.198E+00   12.80       0.0  T
    2     -4.4867795 -0.175666E-03  0.119E+00   12.63       1.0  T
    3     -4.4868279 -0.483594E-04  0.125E-01   12.43       1.0  T
    4     -4.4868330 -0.511267E-05  0.378E-02   12.45       1.3  T
    5     -4.4868331 -0.865542E-07  0.326E-03   12.45      15.3  T
    6     -4.4868331 -0.113641E-08  0.945E-04   12.45      52.9  T
    7     -4.4868331 -0.362750E-10  0.658E-06   12.45    7593.6  T
      SCC iter.                  ...        0 min,  0.002 sec
      gradient                   ...        0 min,  0.000 sec
          :::::::::::::::::::::::::::::::::::::::::::::::::::::
          :: total energy               -4.430815399833 Eh   ::
          :: gradient norm               0.000086903799 Eh/α ::
          :: HOMO-LUMO gap              12.445762809812 eV   ::
          :::::::::::::::::::::::::::::::::::::::::::::::::::::
  
  
 Output gradient
 ----------------------------------------
              Forces (Hartree/Bohr)
            X           Y           Z
 ----------------------------------------
 0    -0.00006339  0.00000000  0.00000015
 1     0.00003932  0.00000000 -0.00001708
 2     0.00001203 -0.00002513  0.00000846
 3     0.00001203  0.00002513  0.00000846
 ----------------------------------------
  
 ExternalExternalExternalExternalExternalExternalExternalExternalExternalExternal

    19   0   0   T    F  5.00D-01 0.00106573 0.00040636 0.00000052 0.00000020   -4.4308154 --++

 ExternalExternalExternalExternalExternalExternalExternalExternalExternalExternal
 Output from external command:
 "/home/pbeaujea/g2xtb_interface/interface.py -s h2o R /home/pbeaujea/g2xtb_interface/tmp/Gau-16187.EIn /home/pbeaujea/g2xtb_interface/tmp/Gau-16187.EOu /home/pbeaujea/g2xtb_interface/tmp/Gau-16187.EMs /home/pbeaujea/g2xtb_interface/tmp/Gau-16187.EFC /home/pbeaujea/g2xtb_interface/tmp/Gau-16187.EUF"
 running g2xtb_interface interface.py
  
 Input geometry (charge=0)
 ---------------------------------------
                Coordinates (Bohr)
 Z         X           Y           Z
 ---------------------------------------
 7   -0.00010640 -0.00000000 -0.16367372
 1   -1.77687116 -0.00000000  0.54493153
 1    0.88848878 -1.53889890  0.54493936
 1    0.88848878  1.53889890  0.54493936
 ---------------------------------------
  
  Solvent             : h2o
  Using internal parameter file: .param_gbsa2_h2o
  Gsolv ref. state (COSMO-RS): gsolv [1 M gas/solution]
  temperature (mdtemp)       :    300.000000000000
  dielectric constant        :    80.2000000000000
  rho                        :    1.00000000000000
  mass                       :    18.0000000000000
  surface tension            :    15.5689454083859
  probe radius               :   0.975313790000000
  vdW radii scaling          :    1.00000000000000
  Gshift (Eh)                :   1.857443126794793E-003
  c1                         :    1.55243817000000
  soset                      :   0.130326360000000
  HB correction              :  T
    1     -4.4866039 -0.448660E+01  0.198E+00   12.80       0.0  T
    2     -4.4867795 -0.175666E-03  0.119E+00   12.63       1.0  T
    3     -4.4868279 -0.483594E-04  0.125E-01   12.43       1.0  T
    4     -4.4868330 -0.511266E-05  0.378E-02   12.45       1.3  T
    5     -4.4868331 -0.865542E-07  0.326E-03   12.45      15.3  T
    6     -4.4868331 -0.113640E-08  0.945E-04   12.45      52.9  T
    7     -4.4868331 -0.362768E-10  0.658E-06   12.45    7593.6  T
      SCC iter.                  ...        0 min,  0.002 sec
      gradient                   ...        0 min,  0.000 sec
          :::::::::::::::::::::::::::::::::::::::::::::::::::::
          :: total energy               -4.430815399892 Eh   ::
          :: gradient norm               0.000086240484 Eh/α ::
          :: HOMO-LUMO gap              12.445763956459 eV   ::
          :::::::::::::::::::::::::::::::::::::::::::::::::::::
  
  
 Output gradient
 ----------------------------------------
              Forces (Hartree/Bohr)
            X           Y           Z
 ----------------------------------------
 0    -0.00006288  0.00000000  0.00000018
 1     0.00003903 -0.00000000 -0.00001695
 2     0.00001193 -0.00002498  0.00000839
 3     0.00001193  0.00002498  0.00000839
 ----------------------------------------
  
 ExternalExternalExternalExternalExternalExternalExternalExternalExternalExternal

    20   0   0   T    T  1.00D+00 0.00006288 0.00002490 0.00000476 0.00000262   -4.4308154 ++++

 ExternalExternalExternalExternalExternalExternalExternalExternalExternalExternal
 Output from external command:
 "/home/pbeaujea/g2xtb_interface/interface.py -s h2o R /home/pbeaujea/g2xtb_interface/tmp/Gau-16187.EIn /home/pbeaujea/g2xtb_interface/tmp/Gau-16187.EOu /home/pbeaujea/g2xtb_interface/tmp/Gau-16187.EMs /home/pbeaujea/g2xtb_interface/tmp/Gau-16187.EFC /home/pbeaujea/g2xtb_interface/tmp/Gau-16187.EUF"
 running g2xtb_interface interface.py
  
 Input geometry (charge=0)
 ---------------------------------------
                Coordinates (Bohr)
 Z         X           Y           Z
 ---------------------------------------
 7   -0.00010793 -0.00000000 -0.16367844
 1   -1.77687531 -0.00000000  0.54493288
 1    0.88849162 -1.53889594  0.54494105
 1    0.88849162  1.53889594  0.54494105
 ---------------------------------------
  
  Solvent             : h2o
  Using internal parameter file: .param_gbsa2_h2o
  Gsolv ref. state (COSMO-RS): gsolv [1 M gas/solution]
  temperature (mdtemp)       :    300.000000000000
  dielectric constant        :    80.2000000000000
  rho                        :    1.00000000000000
  mass                       :    18.0000000000000
  surface tension            :    15.5689454083859
  probe radius               :   0.975313790000000
  vdW radii scaling          :    1.00000000000000
  Gshift (Eh)                :   1.857443126794793E-003
  c1                         :    1.55243817000000
  soset                      :   0.130326360000000
  HB correction              :  T
    1     -4.4866032 -0.448660E+01  0.198E+00   12.80       0.0  T
    2     -4.4867788 -0.175661E-03  0.119E+00   12.63       1.0  T
    3     -4.4868272 -0.483588E-04  0.125E-01   12.43       1.0  T
    4     -4.4868323 -0.511247E-05  0.378E-02   12.45       1.3  T
    5     -4.4868324 -0.865531E-07  0.326E-03   12.45      15.3  T
    6     -4.4868324 -0.113619E-08  0.945E-04   12.45      52.9  T
    7     -4.4868324 -0.362732E-10  0.658E-06   12.45    7593.8  T
      SCC iter.                  ...        0 min,  0.002 sec
      gradient                   ...        0 min,  0.000 sec
          :::::::::::::::::::::::::::::::::::::::::::::::::::::
          :: total energy               -4.430815400024 Eh   ::
          :: gradient norm               0.000085297601 Eh/α ::
          :: HOMO-LUMO gap              12.445736955332 eV   ::
          :::::::::::::::::::::::::::::::::::::::::::::::::::::
  
  
 Output gradient
 ----------------------------------------
              Forces (Hartree/Bohr)
            X           Y           Z
 ----------------------------------------
 0    -0.00006234 -0.00000000 -0.00000146
 1     0.00003719  0.00000000 -0.00001626
 2     0.00001258 -0.00002516  0.00000886
 3     0.00001258  0.00002516  0.00000886
 ----------------------------------------
  
 ExternalExternalExternalExternalExternalExternalExternalExternalExternalExternal

    21   0   0   F    T  1.00D+00 0.00006234 0.00002462 0.00006240 0.00002463   -4.4308154 ====
 Running external command "/home/pbeaujea/g2xtb_interface/interface.py -s h2o R"
         input file       "/home/pbeaujea/g2xtb_interface/tmp/Gau-16187.EIn"
         output file      "/home/pbeaujea/g2xtb_interface/tmp/Gau-16187.EOu"
         message file     "/home/pbeaujea/g2xtb_interface/tmp/Gau-16187.EMs"
         fchk file        "/home/pbeaujea/g2xtb_interface/tmp/Gau-16187.EFC"
         mat. el file     "/home/pbeaujea/g2xtb_interface/tmp/Gau-16187.EUF"

 ExternalExternalExternalExternalExternalExternalExternalExternalExternalExternal
 Output from external command:
 "/home/pbeaujea/g2xtb_interface/interface.py -s h2o R /home/pbeaujea/g2xtb_interface/tmp/Gau-16187.EIn /home/pbeaujea/g2xtb_interface/tmp/Gau-16187.EOu /home/pbeaujea/g2xtb_interface/tmp/Gau-16187.EMs /home/pbeaujea/g2xtb_interface/tmp/Gau-16187.EFC /home/pbeaujea/g2xtb_interface/tmp/Gau-16187.EUF"
 running g2xtb_interface interface.py
  
 Input geometry (charge=0)
 ---------------------------------------
                Coordinates (Bohr)
 Z         X           Y           Z
 ---------------------------------------
 7   -0.00010793 -0.00000000 -0.16367844
 1   -1.77687531 -0.00000000  0.54493288
 1    0.88849162 -1.53889594  0.54494105
 1    0.88849162  1.53889594  0.54494105
 ---------------------------------------
  
  Solvent             : h2o
  Using internal parameter file: .param_gbsa2_h2o
  Gsolv ref. state (COSMO-RS): gsolv [1 M gas/solution]
  temperature (mdtemp)       :    300.000000000000
  dielectric constant        :    80.2000000000000
  rho                        :    1.00000000000000
  mass                       :    18.0000000000000
  surface tension            :    15.5689454083859
  probe radius               :   0.975313790000000
  vdW radii scaling          :    1.00000000000000
  Gshift (Eh)                :   1.857443126794793E-003
  c1                         :    1.55243817000000
  soset                      :   0.130326360000000
  HB correction              :  T
    1     -4.4866031 -0.448660E+01  0.198E+00   12.80       0.0  T
    2     -4.4867788 -0.175670E-03  0.119E+00   12.63       1.0  T
    3     -4.4868272 -0.483590E-04  0.125E-01   12.43       1.0  T
    4     -4.4868323 -0.511291E-05  0.378E-02   12.45       1.3  T
    5     -4.4868324 -0.865517E-07  0.326E-03   12.45      15.3  T
    6     -4.4868324 -0.113653E-08  0.945E-04   12.45      52.9  T
    7     -4.4868324 -0.362776E-10  0.658E-06   12.45    7593.5  T
      SCC iter.                  ...        0 min,  0.002 sec
      gradient                   ...        0 min,  0.000 sec
          :::::::::::::::::::::::::::::::::::::::::::::::::::::
          :: total energy               -4.430815400024 Eh   ::
          :: gradient norm               0.000085297601 Eh/α ::
          :: HOMO-LUMO gap              12.445736955359 eV   ::
          :::::::::::::::::::::::::::::::::::::::::::::::::::::
  
  
 Output gradient
 ----------------------------------------
              Forces (Hartree/Bohr)
            X           Y           Z
 ----------------------------------------
 0    -0.00006234  0.00000000 -0.00000146
 1     0.00003719 -0.00000000 -0.00001626
 2     0.00001258 -0.00002516  0.00000886
 3     0.00001258  0.00002516  0.00000886
 ----------------------------------------
  
 ExternalExternalExternalExternalExternalExternalExternalExternalExternalExternal

 Recovered energy= -4.43081540002     dipole=      0.000025627946     -0.000000000000      0.744113199681
 Energy=    -4.43081540     NIter=   0.
 Dipole moment=       0.000026      -0.000000       0.744113
 Leave Link  402 at Wed Oct  9 11:09:03 2019, MaxMem=   104857600 cpu:               0.2 elap:              21.9
 (Enter /opt/sw/arch/easybuild/sticky_20170712/software/Gaussian/16_A03-PGI-16.5/g16/l601.exe)
 Leave Link  601 at Wed Oct  9 11:09:03 2019, MaxMem=   104857600 cpu:               0.1 elap:               0.1
 (Enter /opt/sw/arch/easybuild/sticky_20170712/software/Gaussian/16_A03-PGI-16.5/g16/l716.exe)
 Dipole        = 2.56279464D-05-1.77635684D-15 7.44113200D-01
 -------------------------------------------------------------------
 Center     Atomic                   Forces (Hartrees/Bohr)
 Number     Number              X              Y              Z
 -------------------------------------------------------------------
      1        7           0.000062343   -0.000000000    0.000001456
      2        1          -0.000037186    0.000000000    0.000016264
      3        1          -0.000012579    0.000025161   -0.000008860
      4        1          -0.000012579   -0.000025161   -0.000008860
 -------------------------------------------------------------------
 Cartesian Forces:  Max     0.000062343 RMS     0.000024623
 Leave Link  716 at Wed Oct  9 11:09:04 2019, MaxMem=   104857600 cpu:               0.2 elap:               0.2
 (Enter /opt/sw/arch/easybuild/sticky_20170712/software/Gaussian/16_A03-PGI-16.5/g16/l103.exe)

 GradGradGradGradGradGradGradGradGradGradGradGradGradGradGradGradGradGrad
 Berny optimization.
 Search for a local minimum.
 Step number   1 out of a maximum of    2
 All quantities printed in internal units (Hartrees-Bohrs-Radians)
 RMS Force = .24623D-04 SwitMx=.10000D-02 MixMth= 2
 Mixed Optimization -- En-DIIS/RFO-DIIS
 Second derivative matrix not updated -- unit matrix used.
 ITU=  0
 RFO step:  Lambda= 0.00000000D+00 EMin= 1.00000000D+00
 Linear search not attempted -- first point.
 Variable       Old X    -DE/DX   Delta X   Delta X   Delta X     New X
                                 (Linear)    (Quad)   (Total)
    X1       -0.00011   0.00006   0.00000   0.00006   0.00006  -0.00005
    Y1       -0.00000  -0.00000   0.00000  -0.00000  -0.00000  -0.00000
    Z1       -0.16368   0.00000   0.00000   0.00000   0.00000  -0.16368
    X2       -1.77688  -0.00004   0.00000  -0.00004  -0.00004  -1.77691
    Y2       -0.00000   0.00000   0.00000   0.00000   0.00000  -0.00000
    Z2        0.54493   0.00002   0.00000   0.00002   0.00002   0.54495
    X3        0.88849  -0.00001   0.00000  -0.00001  -0.00001   0.88848
    Y3       -1.53890   0.00003   0.00000   0.00003   0.00003  -1.53887
    Z3        0.54494  -0.00001   0.00000  -0.00001  -0.00001   0.54493
    X4        0.88849  -0.00001   0.00000  -0.00001  -0.00001   0.88848
    Y4        1.53890  -0.00003   0.00000  -0.00003  -0.00003   1.53887
    Z4        0.54494  -0.00001   0.00000  -0.00001  -0.00001   0.54493
         Item               Value     Threshold  Converged?
 Maximum Force            0.000062     0.000450     YES
 RMS     Force            0.000025     0.000300     YES
 Maximum Displacement     0.000062     0.001800     YES
 RMS     Displacement     0.000025     0.001200     YES
 Predicted change in Energy=-3.637840D-09
 Optimization completed.
    -- Stationary point found.
 Largest change from initial coordinates is atom    1       0.023 Angstoms.
 GradGradGradGradGradGradGradGradGradGradGradGradGradGradGradGradGradGrad

 Leave Link  103 at Wed Oct  9 11:09:04 2019, MaxMem=   104857600 cpu:               0.1 elap:               0.2
 (Enter /opt/sw/arch/easybuild/sticky_20170712/software/Gaussian/16_A03-PGI-16.5/g16/l202.exe)
                          Input orientation:                          
 ---------------------------------------------------------------------
 Center     Atomic      Atomic             Coordinates (Angstroms)
 Number     Number       Type             X           Y           Z
 ---------------------------------------------------------------------
      1          7           0       -0.000057   -0.000000   -0.086615
      2          1           0       -0.940282   -0.000000    0.288366
      3          1           0        0.470170   -0.814349    0.288370
      4          1           0        0.470170    0.814349    0.288370
 ---------------------------------------------------------------------
                    Distance matrix (angstroms):
                    1          2          3          4
     1  N    0.000000
     2  H    1.012242   0.000000
     3  H    1.012369   1.628661   0.000000
     4  H    1.012369   1.628661   1.628697   0.000000
 Symmetry turned off by external request.
 Stoichiometry    H3N
 Framework group  CS[SG(HN),X(H2)]
 Deg. of freedom     4
 Full point group                 CS      NOp   2
 Rotational constants (GHZ):         299.7018532         299.6877687         189.0445510
 Leave Link  202 at Wed Oct  9 11:09:04 2019, MaxMem=   104857600 cpu:               0.0 elap:               0.0
 (Enter /opt/sw/arch/easybuild/sticky_20170712/software/Gaussian/16_A03-PGI-16.5/g16/l9999.exe)
 1\1\GINC-HERCULES\FOpt\RExternal='/home/pbeaujea/g2xtb_interface/inter
 face.py -s h2o'\ZDO\H3N1\PBEAUJEA\09-Oct-2019\0\\#p opt external="/hom
 e/pbeaujea/g2xtb_interface/interface.py -s h2o" nosymmetry\\Title\\0,1
 \N,-0.0000571149,0.,-0.0866149026\H,-0.9402819193,0.,0.2883660617\H,0.
 4701695171,-0.8143486634,0.2883703825\H,0.4701695171,0.8143486634,0.28
 83703825\\Version=ES64L-G16RevA.03\HF=-4.4308154\RMSD=0.000e+00\RMSF=2
 .462e-05\Dipole=0.0000256,0.,0.7441132\PG=CS [SG(H1N1),X(H2)]\\@


 COMMON SENSE IS NOT SO COMMON.   -- VOLTAIRE
 Job cpu time:       0 days  0 hours  0 minutes  1.7 seconds.
 Elapsed time:       0 days  0 hours  0 minutes 23.5 seconds.
 File lengths (MBytes):  RWF=      5 Int=      0 D2E=      0 Chk=      1 Scr=      1
 Normal termination of Gaussian 16 at Wed Oct  9 11:09:04 2019.
