 Entering Gaussian System, Link 0=g16
 Input=vitamin_opt.com
 Output=vitamin_opt.log
 Initial command:
 /opt/sw/arch/easybuild/sticky_20170712/software/Gaussian/16_A03-PGI-16.5-betaprint/g16/l1.exe "/scratch/201351991/Gau-125063.inp" -scrdir="/scratch/201351991/"
 Entering Link 1 = /opt/sw/arch/easybuild/sticky_20170712/software/Gaussian/16_A03-PGI-16.5-betaprint/g16/l1.exe PID=    125065.
  
 Copyright (c) 1988,1990,1992,1993,1995,1998,2003,2009,2016,
            Gaussian, Inc.  All Rights Reserved.
  
 This is part of the Gaussian(R) 16 program.  It is based on
 the Gaussian(R) 09 system (copyright 2009, Gaussian, Inc.),
 the Gaussian(R) 03 system (copyright 2003, Gaussian, Inc.),
 the Gaussian(R) 98 system (copyright 1998, Gaussian, Inc.),
 the Gaussian(R) 94 system (copyright 1995, Gaussian, Inc.),
 the Gaussian 92(TM) system (copyright 1992, Gaussian, Inc.),
 the Gaussian 90(TM) system (copyright 1990, Gaussian, Inc.),
 the Gaussian 88(TM) system (copyright 1988, Gaussian, Inc.),
 the Gaussian 86(TM) system (copyright 1986, Carnegie Mellon
 University), and the Gaussian 82(TM) system (copyright 1983,
 Carnegie Mellon University). Gaussian is a federally registered
 trademark of Gaussian, Inc.
  
 This software contains proprietary and confidential information,
 including trade secrets, belonging to Gaussian, Inc.
  
 This software is provided under written license and may be
 used, copied, transmitted, or stored only in accord with that
 written license.
  
 The following legend is applicable only to US Government
 contracts under FAR:
  
                    RESTRICTED RIGHTS LEGEND
  
 Use, reproduction and disclosure by the US Government is
 subject to restrictions as set forth in subparagraphs (a)
 and (c) of the Commercial Computer Software - Restricted
 Rights clause in FAR 52.227-19.
  
 Gaussian, Inc.
 340 Quinnipiac St., Bldg. 40, Wallingford CT 06492
  
  
 ---------------------------------------------------------------
 Warning -- This program may not be used in any manner that
 competes with the business of Gaussian, Inc. or will provide
 assistance to any competitor of Gaussian, Inc.  The licensee
 of this program is prohibited from giving any competitor of
 Gaussian, Inc. access to this program.  By using this program,
 the user acknowledges that Gaussian, Inc. is engaged in the
 business of creating and licensing software in the field of
 computational chemistry and represents and warrants to the
 licensee that it is not a competitor of Gaussian, Inc. and that
 it will not use this program in any manner prohibited above.
 ---------------------------------------------------------------
  

 Cite this work as:
 Gaussian 16, Revision A.03,
 M. J. Frisch, G. W. Trucks, H. B. Schlegel, G. E. Scuseria, 
 M. A. Robb, J. R. Cheeseman, G. Scalmani, V. Barone, 
 G. A. Petersson, H. Nakatsuji, X. Li, M. Caricato, A. V. Marenich, 
 J. Bloino, B. G. Janesko, R. Gomperts, B. Mennucci, H. P. Hratchian, 
 J. V. Ortiz, A. F. Izmaylov, J. L. Sonnenberg, D. Williams-Young, 
 F. Ding, F. Lipparini, F. Egidi, J. Goings, B. Peng, A. Petrone, 
 T. Henderson, D. Ranasinghe, V. G. Zakrzewski, J. Gao, N. Rega, 
 G. Zheng, W. Liang, M. Hada, M. Ehara, K. Toyota, R. Fukuda, 
 J. Hasegawa, M. Ishida, T. Nakajima, Y. Honda, O. Kitao, H. Nakai, 
 T. Vreven, K. Throssell, J. A. Montgomery, Jr., J. E. Peralta, 
 F. Ogliaro, M. J. Bearpark, J. J. Heyd, E. N. Brothers, K. N. Kudin, 
 V. N. Staroverov, T. A. Keith, R. Kobayashi, J. Normand, 
 K. Raghavachari, A. P. Rendell, J. C. Burant, S. S. Iyengar, 
 J. Tomasi, M. Cossi, J. M. Millam, M. Klene, C. Adamo, R. Cammi, 
 J. W. Ochterski, R. L. Martin, K. Morokuma, O. Farkas, 
 J. B. Foresman, and D. J. Fox, Gaussian, Inc., Wallingford CT, 2016.
 
 ******************************************
 Gaussian 16:  ES64L-G16RevA.03 25-Dec-2016
                10-Oct-2019 
 ******************************************
 %mem=3000MB
 %chk=vitamin_opt.chk
 %nprocshared=4
 Will use up to    4 processors via shared memory.
 ----------------------------------------------------------------------
 #p opt=nomicro oniom(m06/6-311+g(d):external="/home/pbeaujea/g2xtb_int
 erface/interface.py")
 ----------------------------------------------------------------------
 1/18=20,19=15,26=1,38=1,52=2/1,3;
 2/9=110,12=2,17=6,18=5,40=1/2;
 1/18=20,19=15,26=1,38=1,52=2,53=3172/20;
 3/11=9,25=1,30=1,41=9900000,43=2,71=1/1;
 4/20=17,22=1,24=3,113=1,114=1/2;
 6/7=2,8=2,9=2,10=2/1;
 7/7=1,33=-1,44=-1/16;
 1/18=20,19=15,26=1,52=2,53=2032/20;
 3/5=4,6=6,7=11,11=2,25=1,30=1,71=1,74=-54/1,2,3;
 4//1;
 5/5=2,38=5/2;
 6/7=2,8=2,9=2,10=2,28=1/1;
 7/7=1,33=-1/1,2,3,16;
 1/18=20,19=15,26=1,52=2,53=1022/20;
 3/11=9,25=1,30=1,41=9900000,43=2,71=1/1;
 4/20=17,22=1,24=3,113=1,114=2/2;
 6/7=2,8=2,9=2,10=2/1;
 7/7=1,33=-1,44=-1/16;
 1/18=20,19=15,26=1,52=2,53=3015/20;
 7/9=1,44=-1,126=2/16;
 1/18=20,19=15,26=1,52=2/3(2);
 2/9=110/2;
 99//99;
 2/9=110/2;
 1/18=20,19=15,26=1,52=2,53=3173/20;
 3/11=9,25=1,30=1,41=9900000,43=2,71=1/1;
 4/16=2,20=17,22=1,24=3,113=1,114=1/2;
 7/7=1,33=-1,44=-1/16;
 1/18=20,19=15,26=1,52=2,53=2033/20;
 3/5=4,6=6,7=11,11=2,25=1,30=1,71=1,74=-54/1,2,3;
 4/5=5,16=3,69=1/1;
 5/5=2,38=5/2;
 7/7=1,33=-1/1,2,3,16;
 1/18=20,19=15,26=1,52=2,53=1023/20;
 3/11=9,25=1,30=1,41=9900000,43=2,71=1/1;
 4/16=2,20=17,22=1,24=3,113=1,114=2/2;
 7/7=1,33=-1,44=-1/16;
 1/18=20,19=15,26=1,52=2,53=3015/20;
 7/9=1,44=-1,126=2/16;
 1/18=20,19=15,26=1,52=2/3(-16);
 2/9=110/2;
 99//99;
 Leave Link    1 at Thu Oct 10 09:50:05 2019, MaxMem=   393216000 cpu:               0.4 elap:               0.2
 (Enter /opt/sw/arch/easybuild/sticky_20170712/software/Gaussian/16_A03-PGI-16.5-betaprint/g16/l101.exe)
 ONIOM: restoring gridpoint  3 on chk file.
 -----------------------------
 Vitamin E oxidation ONIOM opt
 -----------------------------
 Symbolic Z-matrix:
 Charge =  0 Multiplicity = 1 for low   level calculation on real  system.
 Charge =  0 Multiplicity = 1 for high  level calculation on model system.
 Charge =  0 Multiplicity = 1 for low   level calculation on model system.
 C                    0    -2.68256  -2.44362   0.3269   H 
 C                    0    -2.15362  -1.42087   1.29941  H 
 C                    0    -0.84136  -1.1847    1.43432  H 
 C                    0    -1.80145  -3.15357  -0.43267  H 
 C                    0     0.11263  -1.9468    0.58307  H 
 C                    0    -0.34532  -2.88935  -0.28888  H 
 C                    0     1.61858  -1.71167   0.66464  H 
 C                    0     2.29505  -2.11625  -0.63865  H 
 H                    0     2.03143  -2.24482   1.54677  H 
 H                    0     1.85069  -0.62982   0.7515   H 
 C                    0     1.89917  -3.54772  -1.04202  H 
 H                    0     3.39526  -1.97204  -0.58719  H 
 H                    0     1.91587  -1.42191  -1.42417  H 
 O                    0     0.51541  -3.64334  -1.03998  H 
 C                    0    -0.36431  -0.29277   2.30127  H 
 H                    0    -1.01955   0.3001    2.93256  H 
 H                    0     0.68909  -0.11997   2.47363  H 
 O                    0    -3.02088  -0.70753   2.06594  H 
 C                    0    -4.18947  -2.61942   0.25876  H 
 H                    0    -4.56963  -3.3652   -0.45268  H 
 H                    0    -4.65472  -1.65355  -0.03013  H 
 H                    0    -4.56661  -2.92268   1.25771  H 
 C                    0    -2.17683  -4.21942  -1.44738  H 
 H                    0    -3.24767  -4.43252  -1.57283  H 
 H                    0    -1.69604  -5.17802  -1.15931  H 
 H                    0    -1.79435  -3.91888  -2.44573  H 
 C                    0     2.47238  -4.65156  -0.09427  L    H        11    0.        0. 
 C                    0     2.37417  -3.79264  -2.4912   L    H        11    0.        0. 
 H                    0     1.89858  -3.06361  -3.18189  L 
 H                    0     2.08096  -4.81072  -2.82713  L 
 H                    0     3.47098  -3.68586  -2.60606  L 
 C                    0     3.98386  -4.51687   0.16724  L 
 H                    0     2.24995  -5.63636  -0.56183  L 
 H                    0     1.96017  -4.63683   0.89247  L 
 C                    0     4.63146  -5.79536   0.72975  L 
 H                    0     4.16025  -3.65848   0.85061  L 
 H                    0     4.47943  -4.32333  -0.79959  L 
 C                    0     6.14459  -5.6326    1.07954  L 
 H                    0     4.51313  -6.5701   -0.06046  L 
 H                    0     4.09354  -6.14633   1.6378   L 
 C                    0     6.76423  -7.04989   1.28305  L 
 C                    0     8.2774   -7.04562   1.57967  L 
 H                    0     6.23151  -7.58671   2.09858  L 
 H                    0     6.60971  -7.61866   0.33904  L 
 C                    0     8.89572  -8.45557   1.52743  L 
 H                    0     8.48696  -6.55044   2.55222  L 
 H                    0     8.75326  -6.48763   0.76706  L 
 C                    0     10.44961  -8.47678   1.65962  L 
 H                    0     8.6292   -8.90457   0.54438  L 
 H                    0     8.44335  -9.08294   2.32667  L 
 C                    0     10.93689  -9.94563   1.50837  L 
 C                    0     12.46828  -10.1094   1.55471  L 
 H                    0     10.58046  -10.34885   0.53416  L 
 H                    0     10.48366  -10.55383   2.32211  L 
 C                    0     12.8911  -11.57974   1.41584  L 
 H                    0     12.85059  -9.68525   2.50627  L 
 H                    0     12.9199  -9.57027   0.69814  L 
 C                    0     14.42117  -11.74897   1.24598  L 
 H                    0     12.40804  -11.98973   0.50073  L 
 H                    0     12.52588  -12.15922   2.29198  L 
 C                    0     14.7584  -13.2251   1.00237  L 
 H                    0     14.46266  -13.84537   1.87532  L 
 H                    0     15.8494  -13.34606   0.8292   L 
 H                    0     14.22681  -13.5977   0.10064  L 
 C                    0     15.21435  -11.22959   2.45438  L 
 H                    0     14.74417  -11.17797   0.34652  L 
 H                    0     15.05405  -10.14226   2.6007   L 
 H                    0     16.3027  -11.37526   2.28407  L 
 H                    0     14.91999  -11.76966   3.37899  L 
 C                    0     11.12999  -7.55645   0.61755  L 
 H                    0     10.73244  -8.10447   2.66895  L 
 H                    0     12.22953  -7.54529   0.73941  L 
 H                    0     10.85279  -6.49477   0.76029  L 
 H                    0     10.87463  -7.87431  -0.41574  L 
 C                    0     6.90519  -4.83259  -0.00781  L 
 H                    0     6.22707  -5.0424    2.01911  L 
 H                    0     7.95355  -4.62979   0.28013  L 
 H                    0     6.4874   -3.81253  -0.12212  L 
 H                    0     6.87469  -5.36129  -0.98363  L 
 
 ITRead=  0  0  0  0  0  0  0  0  0  0  0  0  0  0  0  0  0  0  0  0
 ITRead=  0  0  0  0  0  0  0  0  0  0  0  0  0  0  0  0  0  0  0  0
 ITRead=  0  0  0  0  0  0  0  0  0  0  0  0  0  0  0  0  0  0  0  0
 ITRead=  0  0  0  0  0  0  0  0  0  0  0  0  0  0  0  0  0  0  0
 MicOpt= -1 -1 -1 -1 -1 -1 -1 -1 -1 -1 -1 -1 -1 -1 -1 -1 -1 -1 -1 -1
 MicOpt= -1 -1 -1 -1 -1 -1 -1 -1 -1 -1 -1 -1 -1 -1 -1 -1 -1 -1 -1 -1
 MicOpt= -1 -1 -1 -1 -1 -1 -1 -1 -1 -1 -1 -1 -1 -1 -1 -1 -1 -1 -1 -1
 MicOpt= -1 -1 -1 -1 -1 -1 -1 -1 -1 -1 -1 -1 -1 -1 -1 -1 -1 -1 -1
 NAtoms=     79 NQM=       79 NQMF=       0 NMMI=      0 NMMIF=      0
                NMic=       0 NMicF=      0.
                    Isotopes and Nuclear Properties:
 (Nuclear quadrupole moments (NQMom) in fm**2, nuclear magnetic moments (NMagM)
  in nuclear magnetons)

  Atom         1           2           3           4           5           6           7           8           9          10
 IAtWgt=          12          12          12          12          12          12          12          12           1           1
 AtmWgt=  12.0000000  12.0000000  12.0000000  12.0000000  12.0000000  12.0000000  12.0000000  12.0000000   1.0078250   1.0078250
 NucSpn=           0           0           0           0           0           0           0           0           1           1
 AtZEff=  -0.0000000  -0.0000000  -0.0000000  -0.0000000  -0.0000000  -0.0000000  -0.0000000  -0.0000000  -0.0000000  -0.0000000
 NQMom=    0.0000000   0.0000000   0.0000000   0.0000000   0.0000000   0.0000000   0.0000000   0.0000000   0.0000000   0.0000000
 NMagM=    0.0000000   0.0000000   0.0000000   0.0000000   0.0000000   0.0000000   0.0000000   0.0000000   2.7928460   2.7928460
 AtZNuc=   6.0000000   6.0000000   6.0000000   6.0000000   6.0000000   6.0000000   6.0000000   6.0000000   1.0000000   1.0000000

  Atom        11          12          13          14          15          16          17          18          19          20
 IAtWgt=          12           1           1          16          12           1           1          16          12           1
 AtmWgt=  12.0000000   1.0078250   1.0078250  15.9949146  12.0000000   1.0078250   1.0078250  15.9949146  12.0000000   1.0078250
 NucSpn=           0           1           1           0           0           1           1           0           0           1
 AtZEff=  -0.0000000  -0.0000000  -0.0000000  -0.0000000  -0.0000000  -0.0000000  -0.0000000  -0.0000000  -0.0000000  -0.0000000
 NQMom=    0.0000000   0.0000000   0.0000000   0.0000000   0.0000000   0.0000000   0.0000000   0.0000000   0.0000000   0.0000000
 NMagM=    0.0000000   2.7928460   2.7928460   0.0000000   0.0000000   2.7928460   2.7928460   0.0000000   0.0000000   2.7928460
 AtZNuc=   6.0000000   1.0000000   1.0000000   8.0000000   6.0000000   1.0000000   1.0000000   8.0000000   6.0000000   1.0000000

  Atom        21          22          23          24          25          26          27          28          29          30
 IAtWgt=           1           1          12           1           1           1          12          12           1           1
 AtmWgt=   1.0078250   1.0078250  12.0000000   1.0078250   1.0078250   1.0078250  12.0000000  12.0000000   1.0078250   1.0078250
 NucSpn=           1           1           0           1           1           1           0           0           1           1
 AtZEff=  -0.0000000  -0.0000000  -0.0000000  -0.0000000  -0.0000000  -0.0000000  -0.0000000  -0.0000000  -0.0000000  -0.0000000
 NQMom=    0.0000000   0.0000000   0.0000000   0.0000000   0.0000000   0.0000000   0.0000000   0.0000000   0.0000000   0.0000000
 NMagM=    2.7928460   2.7928460   0.0000000   2.7928460   2.7928460   2.7928460   0.0000000   0.0000000   2.7928460   2.7928460
 AtZNuc=   1.0000000   1.0000000   6.0000000   1.0000000   1.0000000   1.0000000   6.0000000   6.0000000   1.0000000   1.0000000

  Atom        31          32          33          34          35          36          37          38          39          40
 IAtWgt=           1          12           1           1          12           1           1          12           1           1
 AtmWgt=   1.0078250  12.0000000   1.0078250   1.0078250  12.0000000   1.0078250   1.0078250  12.0000000   1.0078250   1.0078250
 NucSpn=           1           0           1           1           0           1           1           0           1           1
 AtZEff=  -0.0000000  -0.0000000  -0.0000000  -0.0000000  -0.0000000  -0.0000000  -0.0000000  -0.0000000  -0.0000000  -0.0000000
 NQMom=    0.0000000   0.0000000   0.0000000   0.0000000   0.0000000   0.0000000   0.0000000   0.0000000   0.0000000   0.0000000
 NMagM=    2.7928460   0.0000000   2.7928460   2.7928460   0.0000000   2.7928460   2.7928460   0.0000000   2.7928460   2.7928460
 AtZNuc=   1.0000000   6.0000000   1.0000000   1.0000000   6.0000000   1.0000000   1.0000000   6.0000000   1.0000000   1.0000000

  Atom        41          42          43          44          45          46          47          48          49          50
 IAtWgt=          12          12           1           1          12           1           1          12           1           1
 AtmWgt=  12.0000000  12.0000000   1.0078250   1.0078250  12.0000000   1.0078250   1.0078250  12.0000000   1.0078250   1.0078250
 NucSpn=           0           0           1           1           0           1           1           0           1           1
 AtZEff=  -0.0000000  -0.0000000  -0.0000000  -0.0000000  -0.0000000  -0.0000000  -0.0000000  -0.0000000  -0.0000000  -0.0000000
 NQMom=    0.0000000   0.0000000   0.0000000   0.0000000   0.0000000   0.0000000   0.0000000   0.0000000   0.0000000   0.0000000
 NMagM=    0.0000000   0.0000000   2.7928460   2.7928460   0.0000000   2.7928460   2.7928460   0.0000000   2.7928460   2.7928460
 AtZNuc=   6.0000000   6.0000000   1.0000000   1.0000000   6.0000000   1.0000000   1.0000000   6.0000000   1.0000000   1.0000000

  Atom        51          52          53          54          55          56          57          58          59          60
 IAtWgt=          12          12           1           1          12           1           1          12           1           1
 AtmWgt=  12.0000000  12.0000000   1.0078250   1.0078250  12.0000000   1.0078250   1.0078250  12.0000000   1.0078250   1.0078250
 NucSpn=           0           0           1           1           0           1           1           0           1           1
 AtZEff=  -0.0000000  -0.0000000  -0.0000000  -0.0000000  -0.0000000  -0.0000000  -0.0000000  -0.0000000  -0.0000000  -0.0000000
 NQMom=    0.0000000   0.0000000   0.0000000   0.0000000   0.0000000   0.0000000   0.0000000   0.0000000   0.0000000   0.0000000
 NMagM=    0.0000000   0.0000000   2.7928460   2.7928460   0.0000000   2.7928460   2.7928460   0.0000000   2.7928460   2.7928460
 AtZNuc=   6.0000000   6.0000000   1.0000000   1.0000000   6.0000000   1.0000000   1.0000000   6.0000000   1.0000000   1.0000000

  Atom        61          62          63          64          65          66          67          68          69          70
 IAtWgt=          12           1           1           1          12           1           1           1           1          12
 AtmWgt=  12.0000000   1.0078250   1.0078250   1.0078250  12.0000000   1.0078250   1.0078250   1.0078250   1.0078250  12.0000000
 NucSpn=           0           1           1           1           0           1           1           1           1           0
 AtZEff=  -0.0000000  -0.0000000  -0.0000000  -0.0000000  -0.0000000  -0.0000000  -0.0000000  -0.0000000  -0.0000000  -0.0000000
 NQMom=    0.0000000   0.0000000   0.0000000   0.0000000   0.0000000   0.0000000   0.0000000   0.0000000   0.0000000   0.0000000
 NMagM=    0.0000000   2.7928460   2.7928460   2.7928460   0.0000000   2.7928460   2.7928460   2.7928460   2.7928460   0.0000000
 AtZNuc=   6.0000000   1.0000000   1.0000000   1.0000000   6.0000000   1.0000000   1.0000000   1.0000000   1.0000000   6.0000000

  Atom        71          72          73          74          75          76          77          78          79
 IAtWgt=           1           1           1           1          12           1           1           1           1
 AtmWgt=   1.0078250   1.0078250   1.0078250   1.0078250  12.0000000   1.0078250   1.0078250   1.0078250   1.0078250
 NucSpn=           1           1           1           1           0           1           1           1           1
 AtZEff=  -0.0000000  -0.0000000  -0.0000000  -0.0000000  -0.0000000  -0.0000000  -0.0000000  -0.0000000  -0.0000000
 NQMom=    0.0000000   0.0000000   0.0000000   0.0000000   0.0000000   0.0000000   0.0000000   0.0000000   0.0000000
 NMagM=    2.7928460   2.7928460   2.7928460   2.7928460   0.0000000   2.7928460   2.7928460   2.7928460   2.7928460
 AtZNuc=   1.0000000   1.0000000   1.0000000   1.0000000   6.0000000   1.0000000   1.0000000   1.0000000   1.0000000
 Leave Link  101 at Thu Oct 10 09:50:05 2019, MaxMem=   393216000 cpu:               0.8 elap:               0.3
 (Enter /opt/sw/arch/easybuild/sticky_20170712/software/Gaussian/16_A03-PGI-16.5-betaprint/g16/l103.exe)

 GradGradGradGradGradGradGradGradGradGradGradGradGradGradGradGradGradGrad
 Berny optimization.
 Initialization pass.
                           ----------------------------
                           !    Initial Parameters    !
                           ! (Angstroms and Degrees)  !
 --------------------------                            --------------------------
 ! Name  Definition              Value          Derivative Info.                !
 --------------------------------------------------------------------------------
 ! R1    R(1,2)                  1.5072         estimate D2E/DX2                !
 ! R2    R(1,4)                  1.3628         estimate D2E/DX2                !
 ! R3    R(1,19)                 1.5187         estimate D2E/DX2                !
 ! R4    R(2,3)                  1.3402         estimate D2E/DX2                !
 ! R5    R(2,18)                 1.3596         estimate D2E/DX2                !
 ! R6    R(3,5)                  1.4885         estimate D2E/DX2                !
 ! R7    R(3,15)                 1.3322         estimate D2E/DX2                !
 ! R8    R(4,6)                  1.4869         estimate D2E/DX2                !
 ! R9    R(4,23)                 1.5187         estimate D2E/DX2                !
 ! R10   R(5,6)                  1.3632         estimate D2E/DX2                !
 ! R11   R(5,7)                  1.5264         estimate D2E/DX2                !
 ! R12   R(6,14)                 1.3688         estimate D2E/DX2                !
 ! R13   R(7,8)                  1.5231         estimate D2E/DX2                !
 ! R14   R(7,9)                  1.1103         estimate D2E/DX2                !
 ! R15   R(7,10)                 1.1099         estimate D2E/DX2                !
 ! R16   R(8,11)                 1.539          estimate D2E/DX2                !
 ! R17   R(8,12)                 1.1108         estimate D2E/DX2                !
 ! R18   R(8,13)                 1.1149         estimate D2E/DX2                !
 ! R19   R(11,14)                1.3871         estimate D2E/DX2                !
 ! R20   R(11,27)                1.5637         estimate D2E/DX2                !
 ! R21   R(11,28)                1.5446         estimate D2E/DX2                !
 ! R22   R(15,16)                1.086          estimate D2E/DX2                !
 ! R23   R(15,17)                1.0813         estimate D2E/DX2                !
 ! R24   R(19,20)                1.0986         estimate D2E/DX2                !
 ! R25   R(19,21)                1.1103         estimate D2E/DX2                !
 ! R26   R(19,22)                1.11           estimate D2E/DX2                !
 ! R27   R(23,24)                1.099          estimate D2E/DX2                !
 ! R28   R(23,25)                1.1104         estimate D2E/DX2                !
 ! R29   R(23,26)                1.1105         estimate D2E/DX2                !
 ! R30   R(27,32)                1.5398         estimate D2E/DX2                !
 ! R31   R(27,33)                1.1126         estimate D2E/DX2                !
 ! R32   R(27,34)                1.1119         estimate D2E/DX2                !
 ! R33   R(28,29)                1.1112         estimate D2E/DX2                !
 ! R34   R(28,30)                1.1114         estimate D2E/DX2                !
 ! R35   R(28,31)                1.108          estimate D2E/DX2                !
 ! R36   R(32,35)                1.5396         estimate D2E/DX2                !
 ! R37   R(32,36)                1.1113         estimate D2E/DX2                !
 ! R38   R(32,37)                1.1035         estimate D2E/DX2                !
 ! R39   R(35,38)                1.5615         estimate D2E/DX2                !
 ! R40   R(35,39)                1.1129         estimate D2E/DX2                !
 ! R41   R(35,40)                1.1122         estimate D2E/DX2                !
 ! R42   R(38,41)                1.5602         estimate D2E/DX2                !
 ! R43   R(38,75)                1.5495         estimate D2E/DX2                !
 ! R44   R(38,76)                1.1126         estimate D2E/DX2                !
 ! R45   R(41,42)                1.542          estimate D2E/DX2                !
 ! R46   R(41,43)                1.1122         estimate D2E/DX2                !
 ! R47   R(41,44)                1.1129         estimate D2E/DX2                !
 ! R48   R(42,45)                1.5405         estimate D2E/DX2                !
 ! R49   R(42,46)                1.1113         estimate D2E/DX2                !
 ! R50   R(42,47)                1.0946         estimate D2E/DX2                !
 ! R51   R(45,48)                1.5596         estimate D2E/DX2                !
 ! R52   R(45,49)                1.1131         estimate D2E/DX2                !
 ! R53   R(45,50)                1.1122         estimate D2E/DX2                !
 ! R54   R(48,51)                1.5549         estimate D2E/DX2                !
 ! R55   R(48,70)                1.5478         estimate D2E/DX2                !
 ! R56   R(48,71)                1.1124         estimate D2E/DX2                !
 ! R57   R(51,52)                1.5408         estimate D2E/DX2                !
 ! R58   R(51,53)                1.113          estimate D2E/DX2                !
 ! R59   R(51,54)                1.1124         estimate D2E/DX2                !
 ! R60   R(52,55)                1.5362         estimate D2E/DX2                !
 ! R61   R(52,56)                1.1097         estimate D2E/DX2                !
 ! R62   R(52,57)                1.1083         estimate D2E/DX2                !
 ! R63   R(55,58)                1.5487         estimate D2E/DX2                !
 ! R64   R(55,59)                1.113          estimate D2E/DX2                !
 ! R65   R(55,60)                1.1121         estimate D2E/DX2                !
 ! R66   R(58,61)                1.5336         estimate D2E/DX2                !
 ! R67   R(58,65)                1.5359         estimate D2E/DX2                !
 ! R68   R(58,66)                1.1133         estimate D2E/DX2                !
 ! R69   R(61,62)                1.111          estimate D2E/DX2                !
 ! R70   R(61,63)                1.1113         estimate D2E/DX2                !
 ! R71   R(61,64)                1.1111         estimate D2E/DX2                !
 ! R72   R(65,67)                1.1088         estimate D2E/DX2                !
 ! R73   R(65,68)                1.1112         estimate D2E/DX2                !
 ! R74   R(65,69)                1.1105         estimate D2E/DX2                !
 ! R75   R(70,72)                1.1063         estimate D2E/DX2                !
 ! R76   R(70,73)                1.1065         estimate D2E/DX2                !
 ! R77   R(70,74)                1.1108         estimate D2E/DX2                !
 ! R78   R(75,77)                1.1059         estimate D2E/DX2                !
 ! R79   R(75,78)                1.1082         estimate D2E/DX2                !
 ! R80   R(75,79)                1.1103         estimate D2E/DX2                !
 ! A1    A(2,1,4)              119.0932         estimate D2E/DX2                !
 ! A2    A(2,1,19)             117.1124         estimate D2E/DX2                !
 ! A3    A(4,1,19)             123.7943         estimate D2E/DX2                !
 ! A4    A(1,2,3)              121.883          estimate D2E/DX2                !
 ! A5    A(1,2,18)             119.7326         estimate D2E/DX2                !
 ! A6    A(3,2,18)             118.3842         estimate D2E/DX2                !
 ! A7    A(2,3,5)              118.6713         estimate D2E/DX2                !
 ! A8    A(2,3,15)             122.2858         estimate D2E/DX2                !
 ! A9    A(5,3,15)             119.0429         estimate D2E/DX2                !
 ! A10   A(1,4,6)              119.123          estimate D2E/DX2                !
 ! A11   A(1,4,23)             125.3217         estimate D2E/DX2                !
 ! A12   A(6,4,23)             115.5549         estimate D2E/DX2                !
 ! A13   A(3,5,6)              120.2979         estimate D2E/DX2                !
 ! A14   A(3,5,7)              121.5278         estimate D2E/DX2                !
 ! A15   A(6,5,7)              118.1721         estimate D2E/DX2                !
 ! A16   A(4,6,5)              120.9106         estimate D2E/DX2                !
 ! A17   A(4,6,14)             117.7025         estimate D2E/DX2                !
 ! A18   A(5,6,14)             121.3729         estimate D2E/DX2                !
 ! A19   A(5,7,8)              110.582          estimate D2E/DX2                !
 ! A20   A(5,7,9)              109.5931         estimate D2E/DX2                !
 ! A21   A(5,7,10)             111.1414         estimate D2E/DX2                !
 ! A22   A(8,7,9)              112.7756         estimate D2E/DX2                !
 ! A23   A(8,7,10)             103.474          estimate D2E/DX2                !
 ! A24   A(9,7,10)             109.1541         estimate D2E/DX2                !
 ! A25   A(7,8,11)             110.9218         estimate D2E/DX2                !
 ! A26   A(7,8,12)             111.4551         estimate D2E/DX2                !
 ! A27   A(7,8,13)             106.6431         estimate D2E/DX2                !
 ! A28   A(11,8,12)            112.8096         estimate D2E/DX2                !
 ! A29   A(11,8,13)            107.8861         estimate D2E/DX2                !
 ! A30   A(12,8,13)            106.7773         estimate D2E/DX2                !
 ! A31   A(8,11,14)            108.6843         estimate D2E/DX2                !
 ! A32   A(8,11,27)            113.7929         estimate D2E/DX2                !
 ! A33   A(8,11,28)            108.3181         estimate D2E/DX2                !
 ! A34   A(14,11,27)           108.4296         estimate D2E/DX2                !
 ! A35   A(14,11,28)           107.2921         estimate D2E/DX2                !
 ! A36   A(27,11,28)           110.1199         estimate D2E/DX2                !
 ! A37   A(6,14,11)            126.1694         estimate D2E/DX2                !
 ! A38   A(3,15,16)            121.8536         estimate D2E/DX2                !
 ! A39   A(3,15,17)            124.0269         estimate D2E/DX2                !
 ! A40   A(16,15,17)           114.0721         estimate D2E/DX2                !
 ! A41   A(1,19,20)            116.8088         estimate D2E/DX2                !
 ! A42   A(1,19,21)            109.0719         estimate D2E/DX2                !
 ! A43   A(1,19,22)            109.1707         estimate D2E/DX2                !
 ! A44   A(20,19,21)           106.0838         estimate D2E/DX2                !
 ! A45   A(20,19,22)           106.2464         estimate D2E/DX2                !
 ! A46   A(21,19,22)           109.2353         estimate D2E/DX2                !
 ! A47   A(4,23,24)            116.9472         estimate D2E/DX2                !
 ! A48   A(4,23,25)            108.9957         estimate D2E/DX2                !
 ! A49   A(4,23,26)            109.0005         estimate D2E/DX2                !
 ! A50   A(24,23,25)           106.505          estimate D2E/DX2                !
 ! A51   A(24,23,26)           106.5848         estimate D2E/DX2                !
 ! A52   A(25,23,26)           108.5247         estimate D2E/DX2                !
 ! A53   A(11,27,32)           113.6407         estimate D2E/DX2                !
 ! A54   A(11,27,33)           107.2672         estimate D2E/DX2                !
 ! A55   A(11,27,34)           111.0792         estimate D2E/DX2                !
 ! A56   A(32,27,33)           110.1833         estimate D2E/DX2                !
 ! A57   A(32,27,34)           107.4767         estimate D2E/DX2                !
 ! A58   A(33,27,34)           107.0121         estimate D2E/DX2                !
 ! A59   A(11,28,29)           110.3365         estimate D2E/DX2                !
 ! A60   A(11,28,30)           110.3465         estimate D2E/DX2                !
 ! A61   A(11,28,31)           112.7315         estimate D2E/DX2                !
 ! A62   A(29,28,30)           107.469          estimate D2E/DX2                !
 ! A63   A(29,28,31)           107.2191         estimate D2E/DX2                !
 ! A64   A(30,28,31)           108.5481         estimate D2E/DX2                !
 ! A65   A(27,32,35)           113.7219         estimate D2E/DX2                !
 ! A66   A(27,32,36)           109.1355         estimate D2E/DX2                !
 ! A67   A(27,32,37)           107.8997         estimate D2E/DX2                !
 ! A68   A(35,32,36)           110.487          estimate D2E/DX2                !
 ! A69   A(35,32,37)           106.0719         estimate D2E/DX2                !
 ! A70   A(36,32,37)           109.3907         estimate D2E/DX2                !
 ! A71   A(32,35,38)           113.7583         estimate D2E/DX2                !
 ! A72   A(32,35,39)           105.8979         estimate D2E/DX2                !
 ! A73   A(32,35,40)           110.9094         estimate D2E/DX2                !
 ! A74   A(38,35,39)           109.5499         estimate D2E/DX2                !
 ! A75   A(38,35,40)           108.5814         estimate D2E/DX2                !
 ! A76   A(39,35,40)           107.9739         estimate D2E/DX2                !
 ! A77   A(35,38,41)           108.6258         estimate D2E/DX2                !
 ! A78   A(35,38,75)           111.8563         estimate D2E/DX2                !
 ! A79   A(35,38,76)           108.4384         estimate D2E/DX2                !
 ! A80   A(41,38,75)           111.4452         estimate D2E/DX2                !
 ! A81   A(41,38,76)           110.0163         estimate D2E/DX2                !
 ! A82   A(75,38,76)           106.3997         estimate D2E/DX2                !
 ! A83   A(38,41,42)           114.3509         estimate D2E/DX2                !
 ! A84   A(38,41,43)           110.1129         estimate D2E/DX2                !
 ! A85   A(38,41,44)           107.3665         estimate D2E/DX2                !
 ! A86   A(42,41,43)           109.2874         estimate D2E/DX2                !
 ! A87   A(42,41,44)           107.508          estimate D2E/DX2                !
 ! A88   A(43,41,44)           107.9867         estimate D2E/DX2                !
 ! A89   A(41,42,45)           112.6333         estimate D2E/DX2                !
 ! A90   A(41,42,46)           110.7709         estimate D2E/DX2                !
 ! A91   A(41,42,47)           106.572          estimate D2E/DX2                !
 ! A92   A(45,42,46)           111.2124         estimate D2E/DX2                !
 ! A93   A(45,42,47)           105.4804         estimate D2E/DX2                !
 ! A94   A(46,42,47)           109.9118         estimate D2E/DX2                !
 ! A95   A(42,45,48)           114.1721         estimate D2E/DX2                !
 ! A96   A(42,45,49)           107.6404         estimate D2E/DX2                !
 ! A97   A(42,45,50)           109.1875         estimate D2E/DX2                !
 ! A98   A(48,45,49)           107.9339         estimate D2E/DX2                !
 ! A99   A(48,45,50)           109.673          estimate D2E/DX2                !
 ! A100  A(49,45,50)           108.0423         estimate D2E/DX2                !
 ! A101  A(45,48,51)           108.4708         estimate D2E/DX2                !
 ! A102  A(45,48,70)           111.8881         estimate D2E/DX2                !
 ! A103  A(45,48,71)           109.0065         estimate D2E/DX2                !
 ! A104  A(51,48,70)           111.0039         estimate D2E/DX2                !
 ! A105  A(51,48,71)           108.9506         estimate D2E/DX2                !
 ! A106  A(70,48,71)           107.4639         estimate D2E/DX2                !
 ! A107  A(48,51,52)           114.138          estimate D2E/DX2                !
 ! A108  A(48,51,53)           109.0878         estimate D2E/DX2                !
 ! A109  A(48,51,54)           108.5198         estimate D2E/DX2                !
 ! A110  A(52,51,53)           107.8248         estimate D2E/DX2                !
 ! A111  A(52,51,54)           108.9547         estimate D2E/DX2                !
 ! A112  A(53,51,54)           108.1643         estimate D2E/DX2                !
 ! A113  A(51,52,55)           111.8737         estimate D2E/DX2                !
 ! A114  A(51,52,56)           109.1207         estimate D2E/DX2                !
 ! A115  A(51,52,57)           109.2716         estimate D2E/DX2                !
 ! A116  A(55,52,56)           110.3961         estimate D2E/DX2                !
 ! A117  A(55,52,57)           106.4732         estimate D2E/DX2                !
 ! A118  A(56,52,57)           109.6576         estimate D2E/DX2                !
 ! A119  A(52,55,58)           112.7316         estimate D2E/DX2                !
 ! A120  A(52,55,59)           107.9041         estimate D2E/DX2                !
 ! A121  A(52,55,60)           109.7011         estimate D2E/DX2                !
 ! A122  A(58,55,59)           107.3582         estimate D2E/DX2                !
 ! A123  A(58,55,60)           110.7266         estimate D2E/DX2                !
 ! A124  A(59,55,60)           108.2556         estimate D2E/DX2                !
 ! A125  A(55,58,61)           109.8667         estimate D2E/DX2                !
 ! A126  A(55,58,65)           112.7648         estimate D2E/DX2                !
 ! A127  A(55,58,66)           108.6147         estimate D2E/DX2                !
 ! A128  A(61,58,65)           109.6875         estimate D2E/DX2                !
 ! A129  A(61,58,66)           107.5497         estimate D2E/DX2                !
 ! A130  A(65,58,66)           108.2025         estimate D2E/DX2                !
 ! A131  A(58,61,62)           110.7343         estimate D2E/DX2                !
 ! A132  A(58,61,63)           110.2063         estimate D2E/DX2                !
 ! A133  A(58,61,64)           110.2722         estimate D2E/DX2                !
 ! A134  A(62,61,63)           108.8458         estimate D2E/DX2                !
 ! A135  A(62,61,64)           108.851          estimate D2E/DX2                !
 ! A136  A(63,61,64)           107.8631         estimate D2E/DX2                !
 ! A137  A(58,65,67)           111.1477         estimate D2E/DX2                !
 ! A138  A(58,65,68)           109.9309         estimate D2E/DX2                !
 ! A139  A(58,65,69)           110.7145         estimate D2E/DX2                !
 ! A140  A(67,65,68)           106.8811         estimate D2E/DX2                !
 ! A141  A(67,65,69)           109.1913         estimate D2E/DX2                !
 ! A142  A(68,65,69)           108.8734         estimate D2E/DX2                !
 ! A143  A(48,70,72)           111.6361         estimate D2E/DX2                !
 ! A144  A(48,70,73)           111.9334         estimate D2E/DX2                !
 ! A145  A(48,70,74)           110.797          estimate D2E/DX2                !
 ! A146  A(72,70,73)           103.0082         estimate D2E/DX2                !
 ! A147  A(72,70,74)           109.5007         estimate D2E/DX2                !
 ! A148  A(73,70,74)           109.6917         estimate D2E/DX2                !
 ! A149  A(38,75,77)           112.166          estimate D2E/DX2                !
 ! A150  A(38,75,78)           111.258          estimate D2E/DX2                !
 ! A151  A(38,75,79)           110.9425         estimate D2E/DX2                !
 ! A152  A(77,75,78)           102.4411         estimate D2E/DX2                !
 ! A153  A(77,75,79)           110.0106         estimate D2E/DX2                !
 ! A154  A(78,75,79)           109.7125         estimate D2E/DX2                !
 ! D1    D(4,1,2,3)              0.3259         estimate D2E/DX2                !
 ! D2    D(4,1,2,18)          -179.8428         estimate D2E/DX2                !
 ! D3    D(19,1,2,3)          -179.7699         estimate D2E/DX2                !
 ! D4    D(19,1,2,18)            0.0614         estimate D2E/DX2                !
 ! D5    D(2,1,4,6)             -0.5691         estimate D2E/DX2                !
 ! D6    D(2,1,4,23)           179.6486         estimate D2E/DX2                !
 ! D7    D(19,1,4,6)           179.5335         estimate D2E/DX2                !
 ! D8    D(19,1,4,23)           -0.2488         estimate D2E/DX2                !
 ! D9    D(2,1,19,20)          179.9208         estimate D2E/DX2                !
 ! D10   D(2,1,19,21)           59.7126         estimate D2E/DX2                !
 ! D11   D(2,1,19,22)          -59.5785         estimate D2E/DX2                !
 ! D12   D(4,1,19,20)           -0.18           estimate D2E/DX2                !
 ! D13   D(4,1,19,21)         -120.3882         estimate D2E/DX2                !
 ! D14   D(4,1,19,22)          120.3208         estimate D2E/DX2                !
 ! D15   D(1,2,3,5)              0.7792         estimate D2E/DX2                !
 ! D16   D(1,2,3,15)          -179.2771         estimate D2E/DX2                !
 ! D17   D(18,2,3,5)          -179.0543         estimate D2E/DX2                !
 ! D18   D(18,2,3,15)            0.8894         estimate D2E/DX2                !
 ! D19   D(2,3,5,6)             -1.6898         estimate D2E/DX2                !
 ! D20   D(2,3,5,7)            178.8666         estimate D2E/DX2                !
 ! D21   D(15,3,5,6)           178.3646         estimate D2E/DX2                !
 ! D22   D(15,3,5,7)            -1.079          estimate D2E/DX2                !
 ! D23   D(2,3,15,16)           -0.9827         estimate D2E/DX2                !
 ! D24   D(2,3,15,17)          176.364          estimate D2E/DX2                !
 ! D25   D(5,3,15,16)          178.9608         estimate D2E/DX2                !
 ! D26   D(5,3,15,17)           -3.6925         estimate D2E/DX2                !
 ! D27   D(1,4,6,5)             -0.3417         estimate D2E/DX2                !
 ! D28   D(1,4,6,14)           178.3169         estimate D2E/DX2                !
 ! D29   D(23,4,6,5)           179.4615         estimate D2E/DX2                !
 ! D30   D(23,4,6,14)           -1.8799         estimate D2E/DX2                !
 ! D31   D(1,4,23,24)           -0.1568         estimate D2E/DX2                !
 ! D32   D(1,4,23,25)         -120.9578         estimate D2E/DX2                !
 ! D33   D(1,4,23,26)          120.7538         estimate D2E/DX2                !
 ! D34   D(6,4,23,24)         -179.9461         estimate D2E/DX2                !
 ! D35   D(6,4,23,25)           59.2529         estimate D2E/DX2                !
 ! D36   D(6,4,23,26)          -59.0354         estimate D2E/DX2                !
 ! D37   D(3,5,6,4)              1.4714         estimate D2E/DX2                !
 ! D38   D(3,5,6,14)          -177.1376         estimate D2E/DX2                !
 ! D39   D(7,5,6,4)           -179.0665         estimate D2E/DX2                !
 ! D40   D(7,5,6,14)             2.3244         estimate D2E/DX2                !
 ! D41   D(3,5,7,8)           -155.511          estimate D2E/DX2                !
 ! D42   D(3,5,7,9)             79.5575         estimate D2E/DX2                !
 ! D43   D(3,5,7,10)           -41.1765         estimate D2E/DX2                !
 ! D44   D(6,5,7,8)             25.034          estimate D2E/DX2                !
 ! D45   D(6,5,7,9)            -99.8976         estimate D2E/DX2                !
 ! D46   D(6,5,7,10)           139.3685         estimate D2E/DX2                !
 ! D47   D(4,6,14,11)         -179.8445         estimate D2E/DX2                !
 ! D48   D(5,6,14,11)           -1.1924         estimate D2E/DX2                !
 ! D49   D(5,7,8,11)           -52.1455         estimate D2E/DX2                !
 ! D50   D(5,7,8,12)          -178.7424         estimate D2E/DX2                !
 ! D51   D(5,7,8,13)            65.078          estimate D2E/DX2                !
 ! D52   D(9,7,8,11)            70.9583         estimate D2E/DX2                !
 ! D53   D(9,7,8,12)           -55.6386         estimate D2E/DX2                !
 ! D54   D(9,7,8,13)          -171.8182         estimate D2E/DX2                !
 ! D55   D(10,7,8,11)         -171.2327         estimate D2E/DX2                !
 ! D56   D(10,7,8,12)           62.1705         estimate D2E/DX2                !
 ! D57   D(10,7,8,13)          -54.0092         estimate D2E/DX2                !
 ! D58   D(7,8,11,14)           52.3557         estimate D2E/DX2                !
 ! D59   D(7,8,11,27)          -68.5635         estimate D2E/DX2                !
 ! D60   D(7,8,11,28)          168.6185         estimate D2E/DX2                !
 ! D61   D(12,8,11,14)         178.2005         estimate D2E/DX2                !
 ! D62   D(12,8,11,27)          57.2813         estimate D2E/DX2                !
 ! D63   D(12,8,11,28)         -65.5368         estimate D2E/DX2                !
 ! D64   D(13,8,11,14)         -64.1043         estimate D2E/DX2                !
 ! D65   D(13,8,11,27)         174.9765         estimate D2E/DX2                !
 ! D66   D(13,8,11,28)          52.1584         estimate D2E/DX2                !
 ! D67   D(8,11,14,6)          -26.6483         estimate D2E/DX2                !
 ! D68   D(27,11,14,6)          97.5175         estimate D2E/DX2                !
 ! D69   D(28,11,14,6)        -143.5693         estimate D2E/DX2                !
 ! D70   D(8,11,27,32)         -49.88           estimate D2E/DX2                !
 ! D71   D(8,11,27,33)        -171.9174         estimate D2E/DX2                !
 ! D72   D(8,11,27,34)          71.4566         estimate D2E/DX2                !
 ! D73   D(14,11,27,32)       -170.9416         estimate D2E/DX2                !
 ! D74   D(14,11,27,33)         67.0211         estimate D2E/DX2                !
 ! D75   D(14,11,27,34)        -49.605          estimate D2E/DX2                !
 ! D76   D(28,11,27,32)         71.9452         estimate D2E/DX2                !
 ! D77   D(28,11,27,33)        -50.0921         estimate D2E/DX2                !
 ! D78   D(28,11,27,34)       -166.7182         estimate D2E/DX2                !
 ! D79   D(8,11,28,29)         -59.8972         estimate D2E/DX2                !
 ! D80   D(8,11,28,30)        -178.5104         estimate D2E/DX2                !
 ! D81   D(8,11,28,31)          59.9423         estimate D2E/DX2                !
 ! D82   D(14,11,28,29)         57.2639         estimate D2E/DX2                !
 ! D83   D(14,11,28,30)        -61.3493         estimate D2E/DX2                !
 ! D84   D(14,11,28,31)        177.1034         estimate D2E/DX2                !
 ! D85   D(27,11,28,29)        175.0823         estimate D2E/DX2                !
 ! D86   D(27,11,28,30)         56.4691         estimate D2E/DX2                !
 ! D87   D(27,11,28,31)        -65.0782         estimate D2E/DX2                !
 ! D88   D(11,27,32,35)       -162.6442         estimate D2E/DX2                !
 ! D89   D(11,27,32,36)         73.4987         estimate D2E/DX2                !
 ! D90   D(11,27,32,37)        -45.2762         estimate D2E/DX2                !
 ! D91   D(33,27,32,35)        -42.2379         estimate D2E/DX2                !
 ! D92   D(33,27,32,36)       -166.095          estimate D2E/DX2                !
 ! D93   D(33,27,32,37)         75.1301         estimate D2E/DX2                !
 ! D94   D(34,27,32,35)         74.0281         estimate D2E/DX2                !
 ! D95   D(34,27,32,36)        -49.829          estimate D2E/DX2                !
 ! D96   D(34,27,32,37)       -168.6039         estimate D2E/DX2                !
 ! D97   D(27,32,35,38)       -176.3638         estimate D2E/DX2                !
 ! D98   D(27,32,35,39)         63.27           estimate D2E/DX2                !
 ! D99   D(27,32,35,40)        -53.6207         estimate D2E/DX2                !
 ! D100  D(36,32,35,38)        -53.2426         estimate D2E/DX2                !
 ! D101  D(36,32,35,39)       -173.6087         estimate D2E/DX2                !
 ! D102  D(36,32,35,40)         69.5006         estimate D2E/DX2                !
 ! D103  D(37,32,35,38)         65.2135         estimate D2E/DX2                !
 ! D104  D(37,32,35,39)        -55.1527         estimate D2E/DX2                !
 ! D105  D(37,32,35,40)       -172.0434         estimate D2E/DX2                !
 ! D106  D(32,35,38,41)       -165.6919         estimate D2E/DX2                !
 ! D107  D(32,35,38,75)        -42.2639         estimate D2E/DX2                !
 ! D108  D(32,35,38,76)         74.7621         estimate D2E/DX2                !
 ! D109  D(39,35,38,41)        -47.4038         estimate D2E/DX2                !
 ! D110  D(39,35,38,75)         76.0243         estimate D2E/DX2                !
 ! D111  D(39,35,38,76)       -166.9497         estimate D2E/DX2                !
 ! D112  D(40,35,38,41)         70.2965         estimate D2E/DX2                !
 ! D113  D(40,35,38,75)       -166.2755         estimate D2E/DX2                !
 ! D114  D(40,35,38,76)        -49.2495         estimate D2E/DX2                !
 ! D115  D(35,38,41,42)        177.6344         estimate D2E/DX2                !
 ! D116  D(35,38,41,43)        -58.8718         estimate D2E/DX2                !
 ! D117  D(35,38,41,44)         58.4561         estimate D2E/DX2                !
 ! D118  D(75,38,41,42)         53.9603         estimate D2E/DX2                !
 ! D119  D(75,38,41,43)        177.4541         estimate D2E/DX2                !
 ! D120  D(75,38,41,44)        -65.218          estimate D2E/DX2                !
 ! D121  D(76,38,41,42)        -63.8104         estimate D2E/DX2                !
 ! D122  D(76,38,41,43)         59.6834         estimate D2E/DX2                !
 ! D123  D(76,38,41,44)        177.0113         estimate D2E/DX2                !
 ! D124  D(35,38,75,77)        174.4703         estimate D2E/DX2                !
 ! D125  D(35,38,75,78)         60.3844         estimate D2E/DX2                !
 ! D126  D(35,38,75,79)        -62.0558         estimate D2E/DX2                !
 ! D127  D(41,38,75,77)        -63.708          estimate D2E/DX2                !
 ! D128  D(41,38,75,78)       -177.7939         estimate D2E/DX2                !
 ! D129  D(41,38,75,79)         59.7659         estimate D2E/DX2                !
 ! D130  D(76,38,75,77)         56.2227         estimate D2E/DX2                !
 ! D131  D(76,38,75,78)        -57.8633         estimate D2E/DX2                !
 ! D132  D(76,38,75,79)        179.6965         estimate D2E/DX2                !
 ! D133  D(38,41,42,45)       -169.8774         estimate D2E/DX2                !
 ! D134  D(38,41,42,46)         64.8544         estimate D2E/DX2                !
 ! D135  D(38,41,42,47)        -54.677          estimate D2E/DX2                !
 ! D136  D(43,41,42,45)         66.1859         estimate D2E/DX2                !
 ! D137  D(43,41,42,46)        -59.0823         estimate D2E/DX2                !
 ! D138  D(43,41,42,47)       -178.6137         estimate D2E/DX2                !
 ! D139  D(44,41,42,45)        -50.7788         estimate D2E/DX2                !
 ! D140  D(44,41,42,46)       -176.0471         estimate D2E/DX2                !
 ! D141  D(44,41,42,47)         64.4216         estimate D2E/DX2                !
 ! D142  D(41,42,45,48)        173.3441         estimate D2E/DX2                !
 ! D143  D(41,42,45,49)         53.5494         estimate D2E/DX2                !
 ! D144  D(41,42,45,50)        -63.5013         estimate D2E/DX2                !
 ! D145  D(46,42,45,48)        -61.6283         estimate D2E/DX2                !
 ! D146  D(46,42,45,49)        178.577          estimate D2E/DX2                !
 ! D147  D(46,42,45,50)         61.5264         estimate D2E/DX2                !
 ! D148  D(47,42,45,48)         57.4872         estimate D2E/DX2                !
 ! D149  D(47,42,45,49)        -62.3075         estimate D2E/DX2                !
 ! D150  D(47,42,45,50)       -179.3582         estimate D2E/DX2                !
 ! D151  D(42,45,48,51)       -176.7822         estimate D2E/DX2                !
 ! D152  D(42,45,48,70)        -53.9994         estimate D2E/DX2                !
 ! D153  D(42,45,48,71)         64.7157         estimate D2E/DX2                !
 ! D154  D(49,45,48,51)        -57.1525         estimate D2E/DX2                !
 ! D155  D(49,45,48,70)         65.6303         estimate D2E/DX2                !
 ! D156  D(49,45,48,71)       -175.6546         estimate D2E/DX2                !
 ! D157  D(50,45,48,51)         60.3267         estimate D2E/DX2                !
 ! D158  D(50,45,48,70)       -176.8906         estimate D2E/DX2                !
 ! D159  D(50,45,48,71)        -58.1754         estimate D2E/DX2                !
 ! D160  D(45,48,51,52)        177.3785         estimate D2E/DX2                !
 ! D161  D(45,48,51,53)         56.7133         estimate D2E/DX2                !
 ! D162  D(45,48,51,54)        -60.9201         estimate D2E/DX2                !
 ! D163  D(70,48,51,52)         54.0619         estimate D2E/DX2                !
 ! D164  D(70,48,51,53)        -66.6033         estimate D2E/DX2                !
 ! D165  D(70,48,51,54)        175.7633         estimate D2E/DX2                !
 ! D166  D(71,48,51,52)        -64.084          estimate D2E/DX2                !
 ! D167  D(71,48,51,53)        175.2508         estimate D2E/DX2                !
 ! D168  D(71,48,51,54)         57.6174         estimate D2E/DX2                !
 ! D169  D(45,48,70,72)        177.8695         estimate D2E/DX2                !
 ! D170  D(45,48,70,73)         62.9863         estimate D2E/DX2                !
 ! D171  D(45,48,70,74)        -59.7999         estimate D2E/DX2                !
 ! D172  D(51,48,70,72)        -60.7992         estimate D2E/DX2                !
 ! D173  D(51,48,70,73)       -175.6824         estimate D2E/DX2                !
 ! D174  D(51,48,70,74)         61.5314         estimate D2E/DX2                !
 ! D175  D(71,48,70,72)         58.2439         estimate D2E/DX2                !
 ! D176  D(71,48,70,73)        -56.6394         estimate D2E/DX2                !
 ! D177  D(71,48,70,74)       -179.4256         estimate D2E/DX2                !
 ! D178  D(48,51,52,55)        179.3893         estimate D2E/DX2                !
 ! D179  D(48,51,52,56)         56.9331         estimate D2E/DX2                !
 ! D180  D(48,51,52,57)        -62.9605         estimate D2E/DX2                !
 ! D181  D(53,51,52,55)        -59.2444         estimate D2E/DX2                !
 ! D182  D(53,51,52,56)        178.2994         estimate D2E/DX2                !
 ! D183  D(53,51,52,57)         58.4058         estimate D2E/DX2                !
 ! D184  D(54,51,52,55)         57.9279         estimate D2E/DX2                !
 ! D185  D(54,51,52,56)        -64.5283         estimate D2E/DX2                !
 ! D186  D(54,51,52,57)        175.5781         estimate D2E/DX2                !
 ! D187  D(51,52,55,58)        171.377          estimate D2E/DX2                !
 ! D188  D(51,52,55,59)         52.9991         estimate D2E/DX2                !
 ! D189  D(51,52,55,60)        -64.7338         estimate D2E/DX2                !
 ! D190  D(56,52,55,58)        -66.8974         estimate D2E/DX2                !
 ! D191  D(56,52,55,59)        174.7247         estimate D2E/DX2                !
 ! D192  D(56,52,55,60)         56.9918         estimate D2E/DX2                !
 ! D193  D(57,52,55,58)         52.0634         estimate D2E/DX2                !
 ! D194  D(57,52,55,59)        -66.3145         estimate D2E/DX2                !
 ! D195  D(57,52,55,60)        175.9526         estimate D2E/DX2                !
 ! D196  D(52,55,58,61)       -175.5298         estimate D2E/DX2                !
 ! D197  D(52,55,58,65)         61.7798         estimate D2E/DX2                !
 ! D198  D(52,55,58,66)        -58.1415         estimate D2E/DX2                !
 ! D199  D(59,55,58,61)        -56.8328         estimate D2E/DX2                !
 ! D200  D(59,55,58,65)       -179.5232         estimate D2E/DX2                !
 ! D201  D(59,55,58,66)         60.5555         estimate D2E/DX2                !
 ! D202  D(60,55,58,61)         61.1493         estimate D2E/DX2                !
 ! D203  D(60,55,58,65)        -61.5411         estimate D2E/DX2                !
 ! D204  D(60,55,58,66)        178.5376         estimate D2E/DX2                !
 ! D205  D(55,58,61,62)        -62.3284         estimate D2E/DX2                !
 ! D206  D(55,58,61,63)        177.1827         estimate D2E/DX2                !
 ! D207  D(55,58,61,64)         58.2103         estimate D2E/DX2                !
 ! D208  D(65,58,61,62)         62.1619         estimate D2E/DX2                !
 ! D209  D(65,58,61,63)        -58.327          estimate D2E/DX2                !
 ! D210  D(65,58,61,64)       -177.2994         estimate D2E/DX2                !
 ! D211  D(66,58,61,62)        179.6215         estimate D2E/DX2                !
 ! D212  D(66,58,61,63)         59.1326         estimate D2E/DX2                !
 ! D213  D(66,58,61,64)        -59.8398         estimate D2E/DX2                !
 ! D214  D(55,58,65,67)        -61.9763         estimate D2E/DX2                !
 ! D215  D(55,58,65,68)        179.8948         estimate D2E/DX2                !
 ! D216  D(55,58,65,69)         59.5641         estimate D2E/DX2                !
 ! D217  D(61,58,65,67)        175.233          estimate D2E/DX2                !
 ! D218  D(61,58,65,68)         57.1041         estimate D2E/DX2                !
 ! D219  D(61,58,65,69)        -63.2265         estimate D2E/DX2                !
 ! D220  D(66,58,65,67)         58.1822         estimate D2E/DX2                !
 ! D221  D(66,58,65,68)        -59.9467         estimate D2E/DX2                !
 ! D222  D(66,58,65,69)        179.7226         estimate D2E/DX2                !
 --------------------------------------------------------------------------------
 Trust Radius=3.00D-01 FncErr=1.00D-07 GrdErr=1.00D-07 EigMax=2.50D+02 EigMin=1.00D-04
 Number of steps in this run=    466 maximum allowed number of steps=    474.
 GradGradGradGradGradGradGradGradGradGradGradGradGradGradGradGradGradGrad

 Leave Link  103 at Thu Oct 10 09:50:06 2019, MaxMem=   393216000 cpu:               0.1 elap:               0.1
 (Enter /opt/sw/arch/easybuild/sticky_20170712/software/Gaussian/16_A03-PGI-16.5-betaprint/g16/l202.exe)
 Stoichiometry    C29H48O2
 Framework group  C1[X(C29H48O2)]
 Deg. of freedom   231
 Full point group                 C1      NOp   1
 Largest Abelian subgroup         C1      NOp   1
 Largest concise Abelian subgroup C1      NOp   1
                         Standard orientation:                         
 ---------------------------------------------------------------------
 Center     Atomic      Atomic             Coordinates (Angstroms)
 Number     Number       Type             X           Y           Z
 ---------------------------------------------------------------------
      1          6           0       -8.094127    0.717621   -0.953526
      2          6           0       -8.090288   -0.788648   -1.005570
      3          6           0       -7.075241   -1.511379   -0.512272
      4          6           0       -7.032375    1.364077   -0.394859
      5          6           0       -5.931116   -0.798195    0.118494
      6          6           0       -5.907572    0.564260    0.158234
      7          6           0       -4.753310   -1.557253    0.723827
      8          6           0       -4.062129   -0.713609    1.787027
      9          1           0       -4.063562   -1.880087   -0.084179
     10          1           0       -5.098649   -2.449717    1.286026
     11          6           0       -3.702323    0.677744    1.236382
     12          1           0       -3.188210   -1.243893    2.221735
     13          1           0       -4.798019   -0.575160    2.612996
     14          8           0       -4.840263    1.243574    0.680624
     15          6           0       -7.057000   -2.842330   -0.566630
     16          1           0       -7.874780   -3.409444   -1.001347
     17          1           0       -6.228973   -3.450402   -0.229227
     18          8           0       -9.141380   -1.446782   -1.562910
     19          6           0       -9.301981    1.427326   -1.539814
     20          1           0       -9.300198    2.525101   -1.498044
     21          1           0      -10.213735    1.100324   -0.997049
     22          1           0       -9.398278    1.157518   -2.612210
     23          6           0       -6.885648    2.870987   -0.275372
     24          1           0       -7.704699    3.484472   -0.676170
     25          1           0       -5.964327    3.187804   -0.808149
     26          1           0       -6.783343    3.140391    0.797136
     27          6           0       -2.579744    0.654517    0.148016
     28          6           0       -3.275836    1.573066    2.420544
     29          1           0       -4.105162    1.663530    3.154546
     30          1           0       -3.033506    2.597162    2.063034
     31          1           0       -2.397895    1.172983    2.965282
     32          6           0       -1.332956   -0.147742    0.563948
     33          1           0       -2.303242    1.711201   -0.063844
     34          1           0       -2.954650    0.219238   -0.803935
     35          6           0       -0.085734    0.162226   -0.283812
     36          1           0       -1.568871   -1.233042    0.526394
     37          1           0       -1.076894    0.135930    1.599211
     38          6           0        1.154611   -0.714808    0.077796
     39          1           0        0.149609    1.234239   -0.099267
     40          1           0       -0.302257    0.040059   -1.367918
     41          6           0        2.422359   -0.075875   -0.569243
     42          6           0        3.739547   -0.809463   -0.245902
     43          1           0        2.298166   -0.013037   -1.672730
     44          1           0        2.510608    0.960631   -0.173772
     45          6           0        4.983795   -0.017012   -0.689610
     46          1           0        3.738044   -1.832177   -0.680672
     47          1           0        3.804411   -0.868316    0.845180
     48          6           0        6.336899   -0.645860   -0.235562
     49          1           0        4.912173    1.000573   -0.244174
     50          1           0        4.973423    0.090023   -1.796611
     51          6           0        7.491533    0.296301   -0.679400
     52          6           0        8.891658   -0.171854   -0.238260
     53          1           0        7.320140    1.308990   -0.250681
     54          1           0        7.471720    0.381304   -1.788399
     55          6           0        9.992669    0.786999   -0.716105
     56          1           0        9.072942   -1.194498   -0.629243
     57          1           0        8.942131   -0.181598    0.868850
     58          6           0       11.378691    0.456833   -0.109032
     59          1           0        9.720425    1.813653   -0.383345
     60          1           0       10.038263    0.781549   -1.827274
     61          6           0       12.401614    1.515449   -0.539136
     62          1           0       12.527329    1.515308   -1.642963
     63          1           0       13.386260    1.312423   -0.065686
     64          1           0       12.069690    2.525290   -0.215743
     65          6           0       11.882586   -0.939661   -0.502750
     66          1           0       11.299506    0.497888    1.000672
     67          1           0       11.202242   -1.730822   -0.127797
     68          1           0       12.877745   -1.126258   -0.044962
     69          1           0       11.972420   -1.028206   -1.606071
     70          6           0        6.375995   -0.889574    1.292479
     71          1           0        6.463463   -1.632087   -0.734251
     72          1           0        7.322199   -1.370322    1.604795
     73          1           0        5.608190   -1.618352    1.614561
     74          1           0        6.243526    0.063548    1.847406
     75          6           0        1.320460   -0.875580    1.609953
     76          1           0        0.993346   -1.737471   -0.329741
     77          1           0        2.137311   -1.574237    1.870198
     78          1           0        0.434541   -1.365517    2.060783
     79          1           0        1.492357    0.107794    2.095859
 ---------------------------------------------------------------------
 Rotational constants (GHZ):           0.4677700           0.0244282           0.0241600
 Leave Link  202 at Thu Oct 10 09:50:06 2019, MaxMem=   393216000 cpu:               0.4 elap:               0.1
 (Enter /opt/sw/arch/easybuild/sticky_20170712/software/Gaussian/16_A03-PGI-16.5-betaprint/g16/l120.exe)
 ONIOM: Cut between C /H    27 and C    11 factor= 0.723886 0.723886
 ONIOM: Cut between C /H    28 and C    11 factor= 0.723886 0.723886
 ONIOM: saving gridpoint 17
 ONIOM: restoring gridpoint  3 on chk file.
 ONIOM: generating point  3 -- low level on real system.
 Leave Link  120 at Thu Oct 10 09:50:06 2019, MaxMem=   393216000 cpu:               0.1 elap:               0.1
 (Enter /opt/sw/arch/easybuild/sticky_20170712/software/Gaussian/16_A03-PGI-16.5-betaprint/g16/l301.exe)
 Standard basis: STO-3G (5D, 7F)
 Ernie: Thresh=  0.10000D-02 Tol=  0.10000D-05 Strict=F.
 There are   203 symmetry adapted cartesian basis functions of A   symmetry.
 There are   203 symmetry adapted basis functions of A   symmetry.
   203 basis functions,   609 primitive gaussians,   203 cartesian basis functions
   119 alpha electrons      119 beta electrons
       nuclear repulsion energy      2859.3165323250 Hartrees.
 IExCor=    0 DFT=F Ex=HF Corr=None ExCW=0 ScaHFX=  1.000000
 ScaDFX=  1.000000  1.000000  1.000000  1.000000 ScalE2=  1.000000  1.000000
 IRadAn=      5 IRanWt=     -1 IRanGd=            0 ICorTp=0 IEmpDi=  4
 NAtoms=   79 NActive=   79 NUniq=   79 SFac= 1.00D+00 NAtFMM=   60 NAOKFM=T Big=T
 Integral buffers will be    131072 words long.
 Raffenetti 1 integral format.
 Two-electron integral symmetry is turned on.
 Leave Link  301 at Thu Oct 10 09:50:06 2019, MaxMem=   393216000 cpu:               0.2 elap:               0.1
 (Enter /opt/sw/arch/easybuild/sticky_20170712/software/Gaussian/16_A03-PGI-16.5-betaprint/g16/l402.exe)
 External calculation of energy and first derivatives.
 Running external command "/home/pbeaujea/g2xtb_interface/interface.py R"
         input file       "/scratch/201351991/Gau-125065.EIn"
         output file      "/scratch/201351991/Gau-125065.EOu"
         message file     "/scratch/201351991/Gau-125065.EMs"
         fchk file        "/scratch/201351991/Gau-125065.EFC"
         mat. el file     "/scratch/201351991/Gau-125065.EUF"

 ExternalExternalExternalExternalExternalExternalExternalExternalExternalExternal
 Output from external command:
 "/home/pbeaujea/g2xtb_interface/interface.py R /scratch/201351991/Gau-125065.EIn /scratch/201351991/Gau-125065.EOu /scratch/201351991/Gau-125065.EMs /scratch/201351991/Gau-125065.EFC /scratch/201351991/Gau-125065.EUF"
 running g2xtb_interface interface.py
  
 Input geometry (charge=0)
 ---------------------------------------
                Coordinates (Bohr)
 Z         X           Y           Z
 ---------------------------------------
 6   -15.29568280  1.35610756 -1.80190380
 6   -15.28842894 -1.49032909 -1.90025176
 6   -13.37026846 -2.85609278 -0.96805323
 6   -13.28926343  2.57773260 -0.74617613
 6   -11.20818542 -1.50836939  0.22392150
 6   -11.16369406  1.06629624  0.29901929
 6   -8.98245375 -2.94278201  1.36783398
 6   -7.67631152 -1.34852585  3.37699187
 1   -7.67901910 -3.55284971 -0.15907579
 1   -9.63505081 -4.62929427  2.43023667
 6   -6.99637631  1.28075061  2.33642262
 1   -6.02484397 -2.35061711  4.19847155
 1   -9.06694143 -1.08689429  4.93784769
 8   -9.14677224  2.35001499  1.28619304
 6   -13.33579647 -5.37122563 -1.07077559
 1   -14.88117708 -6.44291506 -1.89227205
 1   -11.77105365 -6.52031438 -0.43317608
 8   -17.27470459 -2.73402177 -2.95347189
 6   -17.57819674  2.69725604 -2.90982625
 1   -17.57482623  4.77174879 -2.83089225
 1   -19.30116233  2.07931192 -1.88414880
 1   -17.76017185  2.18739263 -4.93636062
 6   -13.01198973  5.42537908 -0.52037681
 1   -14.55977122  6.58469868 -1.27777543
 1   -11.27094502  6.02407709 -1.52717948
 1   -12.81866083  5.93447854  1.50636937
 6   -4.87501043  1.23685782  0.27970894
 6   -6.19043340  2.97266459  4.57416524
 1   -7.75763200  3.14361612  5.96122722
 1   -5.73249623  4.90792415  3.89857010
 1   -4.53136532  2.21661644  5.60357134
 6   -2.51892173 -0.27919198  1.06570720
 1   -4.35249618  3.23370066 -0.12064682
 1   -5.58347996  0.41429959 -1.51921659
 6   -0.16201358  0.30656282 -0.53632677
 1   -2.96473743 -2.33011074  0.99474030
 1   -2.03503477  0.25687010  3.02207137
 6    2.18189919 -1.35079218  0.14701367
 1    0.28272085  2.33237453 -0.18758797
 1   -0.57118218  0.07570091 -2.58499022
 6    4.57759553 -0.14338282 -1.07571389
 6    7.06672025 -1.52966288 -0.46468737
 1    4.34290477 -0.02463607 -3.16100159
 1    4.74436129  1.81532994 -0.32838088
 6    9.41800813 -0.03214796 -1.30317321
 1    7.06388024 -3.46231301 -1.28628395
 1    7.18929440 -1.64087964  1.59715851
 6    11.97500309 -1.22049831 -0.44514702
 1    9.28266244  1.89080862 -0.46142229
 1    9.39840699  0.17011791 -3.39510288
 6    14.15694543  0.55992711 -1.28387915
 6    16.80279819 -0.32475785 -0.45024609
 1    13.83305918  2.47363190 -0.47371925
 1    14.11950518  0.72056008 -3.37958403
 6    18.88340775  1.48721223 -1.35324289
 1    17.14537549 -2.25727332 -1.18909676
 1    16.89817798 -0.34317035  1.64188771
 6    21.50261029  0.86328940 -0.20604030
 1    18.36894076  3.42730723 -0.72441651
 1    18.96956732  1.47691449 -3.45304712
 6    23.43565478  2.86378431 -1.01881923
 1    23.67322141  2.86351689 -3.10475032
 1    25.29636435  2.48012000 -0.12412927
 1    22.80840802  4.77210737 -0.40769602
 6    22.45483272 -1.77570266 -0.95006056
 1    21.35297204  0.94087118  1.89099597
 1    21.16916979 -3.27077922 -0.24150146
 1    24.33541210 -2.12831890 -0.08496674
 1    22.62459563 -1.94302717 -3.03503463
 6    12.04888460 -1.68105076  2.44243190
 1    12.21417580 -3.08419816 -1.38753375
 1    13.83695160 -2.58953351  3.03262284
 1    10.59794395 -3.05824243  3.05107875
 1    11.79855339  0.12008749  3.49109115
 6    2.49530733 -1.65460658  3.04237083
 1    1.87715122 -3.28334346 -0.62311963
 1    4.03893335 -2.97487769  3.53416136
 1    0.82116341 -2.58045237  3.89431620
 1    2.82014623  0.20370187  3.96059989
 ---------------------------------------
  
    1    -95.6837055 -0.956837E+02  0.330E+00    1.54       0.0  T
    2    -95.8436079 -0.159902E+00  0.182E+00    1.03       1.0  T
    3    -95.8272859  0.163220E-01  0.158E+00    1.72       1.0  T
    4    -95.8970363 -0.697504E-01  0.558E-01    1.38       1.0  T
    5    -95.9030760 -0.603971E-02  0.347E-01    1.41       1.0  T
    6    -95.9114361 -0.836009E-02  0.776E-02    1.40       1.0  T
    7    -95.9114202  0.159286E-04  0.559E-02    1.40       1.0  T
    8    -95.9115459 -0.125764E-03  0.192E-02    1.39       1.0  T
    9    -95.9115617 -0.157648E-04  0.582E-03    1.40       1.9  T
   10    -95.9115624 -0.731416E-06  0.287E-03    1.40       3.9  T
   11    -95.9115628 -0.393600E-06  0.117E-03    1.40       9.6  T
   12    -95.9115628 -0.356754E-07  0.572E-04    1.40      19.7  T
   13    -95.9115628 -0.512698E-08  0.181E-04    1.40      62.3  T
      SCC iter.                  ...        0 min,  0.829 sec
      gradient                   ...        0 min,  0.092 sec
          :::::::::::::::::::::::::::::::::::::::::::::::::::::
          :: total energy              -94.680104705884 Eh   ::
          :: gradient norm               0.264418087384 Eh/ ::
          :: HOMO-LUMO gap               1.396373876321 eV   ::
          :::::::::::::::::::::::::::::::::::::::::::::::::::::
  
  
 Output gradient
 ----------------------------------------
              Forces (Hartree/Bohr)
            X           Y           Z
 ----------------------------------------
 0     0.00254335  0.01059390  0.00200443
 1     0.16132933 -0.02395254  0.07953325
 2    -0.09704645  0.01992196 -0.05124969
 3    -0.00939928 -0.00063521 -0.00498746
 4     0.00198283  0.00312439  0.00238048
 5    -0.00056412  0.00980143  0.00296930
 6     0.00782850  0.00895445  0.00001010
 7    -0.00150063  0.00031014 -0.00800676
 8     0.00530427 -0.00281734 -0.00901566
 9    -0.00020954 -0.00438467  0.01229651
 10   -0.01842067  0.01919550 -0.00827455
 11    0.00873557 -0.00767758  0.00747719
 12   -0.00866003 -0.00074518  0.00815250
 13    0.02959268 -0.03180077  0.01195638
 14    0.00040105  0.03410435  0.00489176
 15   -0.00138535 -0.00664675 -0.00065854
 16    0.00203827 -0.00393537 -0.00080841
 17   -0.07887926 -0.06179790 -0.04194315
 18    0.00517474  0.00584330  0.00253428
 19   -0.00737877  0.00898164 -0.00324964
 20   -0.01035190  0.00073722  0.00916690
 21    0.00114560  0.00144428 -0.01360412
 22   -0.00637945 -0.00141882 -0.00332259
 23   -0.00332007  0.01181950 -0.00143815
 24    0.00831270  0.00500985 -0.00895168
 25   -0.00239791  0.00420505  0.01228864
 26   -0.00372360  0.00118722  0.00583392
 27    0.00007226 -0.01167234 -0.00621620
 28   -0.00911841  0.00170271  0.01053246
 29    0.00301673  0.01338318 -0.00397997
 30    0.01081998 -0.00305125  0.00961418
 31   -0.00056566  0.00158492 -0.00461513
 32    0.00273729  0.01184132 -0.00262390
 33    0.00113636 -0.00616498 -0.01117639
 34   -0.00171799 -0.00283577  0.00060584
 35   -0.00402863 -0.01181853 -0.00050791
 36    0.00398930  0.00541505  0.00709977
 37   -0.00026974  0.00052888 -0.00193644
 38   -0.00054158  0.01172708  0.00442507
 39   -0.00188123 -0.00144198 -0.01239229
 40    0.00133985 -0.00162472 -0.00032637
 41    0.00018587 -0.00068822 -0.00233367
 42    0.00085581  0.00055809 -0.01259284
 43    0.00135310  0.01041467  0.00564984
 44   -0.00116022 -0.00139401  0.00135002
 45   -0.00040519 -0.01179909 -0.00489538
 46    0.00119056  0.00502159  0.00479225
 47    0.00096035 -0.00017303 -0.00159433
 48   -0.00120498  0.01046378  0.00615098
 49   -0.00225684  0.00053919 -0.01208448
 50    0.00122907 -0.00098796 -0.00035909
 51    0.00087165  0.00122498 -0.00188585
 52   -0.00017099  0.01094211  0.00570795
 53    0.00010964 -0.00004715 -0.01229153
 54   -0.00023164 -0.00246456  0.00041933
 55    0.00187123 -0.01066437 -0.00538087
 56    0.00115728  0.00327910  0.01087735
 57    0.00065023 -0.00005269 -0.00020583
 58   -0.00272412  0.01021116  0.00585175
 59   -0.00146076 -0.00033821 -0.01251125
 60   -0.00522895 -0.00607004  0.00036937
 61    0.00126232 -0.00042343 -0.01448021
 62    0.01193843 -0.00279104  0.00724996
 63   -0.00455358  0.01216347  0.00539477
 64   -0.00204983  0.00636244 -0.00051634
 65    0.00115590  0.00095995  0.01002459
 66   -0.00761243 -0.00957359  0.00593470
 67    0.01158513 -0.00292783  0.00730094
 68    0.00122721 -0.00069878 -0.01432306
 69   -0.00000591  0.00367090 -0.00374116
 70    0.00123933 -0.00959266 -0.00341560
 71    0.00691118 -0.00961827  0.00562634
 72   -0.00363542 -0.01109581  0.00537151
 73   -0.00168961  0.01313125  0.00699561
 74    0.00223047  0.00368547 -0.00417645
 75   -0.00241629 -0.01033583 -0.00122780
 76    0.00375624 -0.01145114  0.00613876
 77   -0.00645111 -0.01002385  0.00660261
 78    0.00175644  0.01358777  0.00571915
 ----------------------------------------
  
 ExternalExternalExternalExternalExternalExternalExternalExternalExternalExternal

 Recovered energy= -94.6801047059     dipole=      1.917816427810      0.596543979605      1.059802352250
 Energy=    -94.6801047     NIter=   0.
 Dipole moment=       1.917816       0.596544       1.059802
 Leave Link  402 at Thu Oct 10 09:50:14 2019, MaxMem=   393216000 cpu:              21.7 elap:               7.5
 (Enter /opt/sw/arch/easybuild/sticky_20170712/software/Gaussian/16_A03-PGI-16.5-betaprint/g16/l601.exe)
 Leave Link  601 at Thu Oct 10 09:50:14 2019, MaxMem=   393216000 cpu:               0.1 elap:               0.1
 (Enter /opt/sw/arch/easybuild/sticky_20170712/software/Gaussian/16_A03-PGI-16.5-betaprint/g16/l716.exe)
 Dipole        = 1.91781643D+00 5.96543980D-01 1.05980235D+00
 ***** Axes restored to original set *****
 Cartesian Forces:  Max     0.176104620 RMS     0.017175800
 Leave Link  716 at Thu Oct 10 09:50:15 2019, MaxMem=   393216000 cpu:               0.2 elap:               0.1
 (Enter /opt/sw/arch/easybuild/sticky_20170712/software/Gaussian/16_A03-PGI-16.5-betaprint/g16/l120.exe)
 SvSCFP did not find density file   528.
 ONIOM: saving gridpoint  3
 ONIOM: restoring gridpoint 17
 ONIOM: restoring gridpoint  2 on chk file.
 ONIOM: generating point  2 -- high level on model system.
 Leave Link  120 at Thu Oct 10 09:50:15 2019, MaxMem=   393216000 cpu:               0.5 elap:               0.2
 (Enter /opt/sw/arch/easybuild/sticky_20170712/software/Gaussian/16_A03-PGI-16.5-betaprint/g16/l301.exe)
 Standard basis: 6-311+G(d) (5D, 7F)
 Ernie: Thresh=  0.10000D-02 Tol=  0.10000D-05 Strict=F.
 There are   364 symmetry adapted cartesian basis functions of A   symmetry.
 There are   350 symmetry adapted basis functions of A   symmetry.
   350 basis functions,   574 primitive gaussians,   364 cartesian basis functions
    51 alpha electrons       51 beta electrons
       nuclear repulsion energy       890.6830370562 Hartrees.
 IExCor= 4235 DFT=T Ex+Corr=M06 ExCW=0 ScaHFX=  0.270000
 ScaDFX=  1.000000  1.000000  1.000000  1.000000 ScalE2=  1.000000  1.000000
 IRadAn=      5 IRanWt=     -1 IRanGd=            0 ICorTp=0 IEmpDi=  4
 NAtoms=   79 NActive=   28 NUniq=   28 SFac= 1.00D+00 NAtFMM=   60 NAOKFM=F Big=F
 Integral buffers will be    131072 words long.
 Raffenetti 2 integral format.
 Two-electron integral symmetry is turned on.
 Leave Link  301 at Thu Oct 10 09:50:15 2019, MaxMem=   393216000 cpu:               0.1 elap:               0.1
 (Enter /opt/sw/arch/easybuild/sticky_20170712/software/Gaussian/16_A03-PGI-16.5-betaprint/g16/l302.exe)
 NPDir=0 NMtPBC=     1 NCelOv=     1 NCel=       1 NClECP=     1 NCelD=      1
         NCelK=      1 NCelE2=     1 NClLst=     1 CellRange=     0.0.
 One-electron integrals computed using PRISM.
 One-electron integral symmetry used in STVInt
 NBasis=   350 RedAO= T EigKep=  1.54D-06  NBF=   350
 NBsUse=   347 1.00D-06 EigRej=  8.77D-07 NBFU=   347
 Precomputing XC quadrature grid using
 IXCGrd= 4 IRadAn=           5 IRanWt=          -1 IRanGd=           0 AccXCQ= 0.00D+00.
 Generated NRdTot=       0 NPtTot=           0 NUsed=           0 NTot=          32
 NSgBfM=   364   364   364   364   364 MxSgAt=    28 MxSgA2=    28.
 Leave Link  302 at Thu Oct 10 09:50:18 2019, MaxMem=   393216000 cpu:               9.9 elap:               3.3
 (Enter /opt/sw/arch/easybuild/sticky_20170712/software/Gaussian/16_A03-PGI-16.5-betaprint/g16/l303.exe)
 DipDrv:  MaxL=1.
 Leave Link  303 at Thu Oct 10 09:50:18 2019, MaxMem=   393216000 cpu:               0.2 elap:               0.1
 (Enter /opt/sw/arch/easybuild/sticky_20170712/software/Gaussian/16_A03-PGI-16.5-betaprint/g16/l401.exe)
 ExpMin= 4.38D-02 ExpMax= 8.59D+03 ExpMxC= 1.30D+03 IAcc=3 IRadAn=         5 AccDes= 0.00D+00
 Harris functional with IExCor= 1009 and IRadAn=       5 diagonalized for initial guess.
 HarFok:  IExCor= 1009 AccDes= 0.00D+00 IRadAn=         5 IDoV= 1 UseB2=F ITyADJ=14
 ICtDFT=  3500011 ScaDFX=  1.000000  1.000000  1.000000  1.000000
 FoFCou: FMM=F IPFlag=           0 FMFlag=      100000 FMFlg1=           0
         NFxFlg=           0 DoJE=T BraDBF=F KetDBF=T FulRan=T
[...]
 ! D118  D(75,38,41,42)         70.0346         -DE/DX =    0.0                 !
 ! D119  D(75,38,41,43)       -169.2157         -DE/DX =    0.0                 !
 ! D120  D(75,38,41,44)        -52.4083         -DE/DX =    0.0                 !
 ! D121  D(76,38,41,42)        -49.1171         -DE/DX =    0.0                 !
 ! D122  D(76,38,41,43)         71.6326         -DE/DX =    0.0                 !
 ! D123  D(76,38,41,44)       -171.5599         -DE/DX =    0.0                 !
 ! D124  D(35,38,75,77)       -178.5516         -DE/DX =    0.0                 !
 ! D125  D(35,38,75,78)         61.886          -DE/DX =    0.0                 !
 ! D126  D(35,38,75,79)        -58.4736         -DE/DX =    0.0                 !
 ! D127  D(41,38,75,77)        -56.5104         -DE/DX =    0.0                 !
 ! D128  D(41,38,75,78)       -176.0728         -DE/DX =    0.0                 !
 ! D129  D(41,38,75,79)         63.5676         -DE/DX =    0.0                 !
 ! D130  D(76,38,75,77)         62.4192         -DE/DX =    0.0                 !
 ! D131  D(76,38,75,78)        -57.1433         -DE/DX =    0.0                 !
 ! D132  D(76,38,75,79)       -177.5028         -DE/DX =    0.0                 !
 ! D133  D(38,41,42,45)        176.5139         -DE/DX =    0.0                 !
 ! D134  D(38,41,42,46)         55.8675         -DE/DX =    0.0                 !
 ! D135  D(38,41,42,47)        -62.1594         -DE/DX =    0.0                 !
 ! D136  D(43,41,42,45)         55.5418         -DE/DX =    0.0                 !
 ! D137  D(43,41,42,46)        -65.1046         -DE/DX =    0.0                 !
 ! D138  D(43,41,42,47)        176.8684         -DE/DX =    0.0                 !
 ! D139  D(44,41,42,45)        -61.175          -DE/DX =    0.0                 !
 ! D140  D(44,41,42,46)        178.1786         -DE/DX =    0.0                 !
 ! D141  D(44,41,42,47)         60.1516         -DE/DX =    0.0                 !
 ! D142  D(41,42,45,48)       -174.8613         -DE/DX =    0.0                 !
 ! D143  D(41,42,45,49)         62.7839         -DE/DX =    0.0                 !
 ! D144  D(41,42,45,50)        -53.9355         -DE/DX =    0.0                 !
 ! D145  D(46,42,45,48)        -54.217          -DE/DX =    0.0                 !
 ! D146  D(46,42,45,49)       -176.5718         -DE/DX =    0.0                 !
 ! D147  D(46,42,45,50)         66.7088         -DE/DX =    0.0                 !
 ! D148  D(47,42,45,48)         63.7849         -DE/DX =    0.0                 !
 ! D149  D(47,42,45,49)        -58.5699         -DE/DX =    0.0                 !
 ! D150  D(47,42,45,50)       -175.2893         -DE/DX =    0.0                 !
 ! D151  D(42,45,48,51)        169.3556         -DE/DX =    0.0                 !
 ! D152  D(42,45,48,70)        -67.5736         -DE/DX =    0.0                 !
 ! D153  D(42,45,48,71)         51.6031         -DE/DX =    0.0                 !
 ! D154  D(49,45,48,51)        -68.1729         -DE/DX =    0.0                 !
 ! D155  D(49,45,48,70)         54.8979         -DE/DX =    0.0                 !
 ! D156  D(49,45,48,71)        174.0747         -DE/DX =    0.0                 !
 ! D157  D(50,45,48,51)         48.5818         -DE/DX =    0.0                 !
 ! D158  D(50,45,48,70)        171.6527         -DE/DX =    0.0                 !
 ! D159  D(50,45,48,71)        -69.1706         -DE/DX =    0.0                 !
 ! D160  D(45,48,51,52)       -170.0847         -DE/DX =    0.0                 !
 ! D161  D(45,48,51,53)         67.2848         -DE/DX =    0.0                 !
 ! D162  D(45,48,51,54)        -49.4555         -DE/DX =    0.0                 !
 ! D163  D(70,48,51,52)         66.799          -DE/DX =    0.0                 !
 ! D164  D(70,48,51,53)        -55.8316         -DE/DX =    0.0                 !
 ! D165  D(70,48,51,54)       -172.5718         -DE/DX =    0.0                 !
 ! D166  D(71,48,51,52)        -52.3461         -DE/DX =    0.0                 !
 ! D167  D(71,48,51,53)       -174.9766         -DE/DX =    0.0                 !
 ! D168  D(71,48,51,54)         68.2831         -DE/DX =    0.0                 !
 ! D169  D(45,48,70,72)        178.7863         -DE/DX =    0.0                 !
 ! D170  D(45,48,70,73)         59.2221         -DE/DX =    0.0                 !
 ! D171  D(45,48,70,74)        -61.027          -DE/DX =    0.0                 !
 ! D172  D(51,48,70,72)        -59.1288         -DE/DX =    0.0                 !
 ! D173  D(51,48,70,73)       -178.693          -DE/DX =    0.0                 !
 ! D174  D(51,48,70,74)         61.0579         -DE/DX =    0.0                 !
 ! D175  D(71,48,70,72)         59.8194         -DE/DX =    0.0                 !
 ! D176  D(71,48,70,73)        -59.7448         -DE/DX =    0.0                 !
 ! D177  D(71,48,70,74)       -179.994          -DE/DX =    0.0                 !
 ! D178  D(48,51,52,55)        173.566          -DE/DX =    0.0                 !
 ! D179  D(48,51,52,56)         52.3228         -DE/DX =    0.0                 !
 ! D180  D(48,51,52,57)        -65.8264         -DE/DX =    0.0                 !
 ! D181  D(53,51,52,55)        -63.9952         -DE/DX =    0.0                 !
 ! D182  D(53,51,52,56)        174.7616         -DE/DX =    0.0                 !
 ! D183  D(53,51,52,57)         56.6125         -DE/DX =    0.0                 !
 ! D184  D(54,51,52,55)         52.7194         -DE/DX =    0.0                 !
 ! D185  D(54,51,52,56)        -68.5237         -DE/DX =    0.0                 !
 ! D186  D(54,51,52,57)        173.3271         -DE/DX =    0.0                 !
 ! D187  D(51,52,55,58)        174.0738         -DE/DX =    0.0                 !
 ! D188  D(51,52,55,59)         53.2585         -DE/DX =    0.0                 !
 ! D189  D(51,52,55,60)        -63.619          -DE/DX =    0.0                 !
 ! D190  D(56,52,55,58)        -65.322          -DE/DX =    0.0                 !
 ! D191  D(56,52,55,59)        173.8627         -DE/DX =    0.0                 !
 ! D192  D(56,52,55,60)         56.9852         -DE/DX =    0.0                 !
 ! D193  D(57,52,55,58)         52.6905         -DE/DX =    0.0                 !
 ! D194  D(57,52,55,59)        -68.1248         -DE/DX =    0.0                 !
 ! D195  D(57,52,55,60)        174.9976         -DE/DX =    0.0                 !
 ! D196  D(52,55,58,61)       -171.2502         -DE/DX =    0.0                 !
 ! D197  D(52,55,58,65)         66.5764         -DE/DX =    0.0                 !
 ! D198  D(52,55,58,66)        -52.9893         -DE/DX =    0.0                 !
 ! D199  D(59,55,58,61)        -50.4897         -DE/DX =    0.0                 !
 ! D200  D(59,55,58,65)       -172.6631         -DE/DX =    0.0                 !
 ! D201  D(59,55,58,66)         67.7712         -DE/DX =    0.0                 !
 ! D202  D(60,55,58,61)         66.2603         -DE/DX =    0.0                 !
 ! D203  D(60,55,58,65)        -55.9132         -DE/DX =    0.0                 !
 ! D204  D(60,55,58,66)       -175.4789         -DE/DX =    0.0                 !
 ! D205  D(55,58,61,62)        -61.3795         -DE/DX =    0.0                 !
 ! D206  D(55,58,61,63)        178.7541         -DE/DX =    0.0                 !
 ! D207  D(55,58,61,64)         58.5948         -DE/DX =    0.0                 !
 ! D208  D(65,58,61,62)         61.9689         -DE/DX =    0.0                 !
 ! D209  D(65,58,61,63)        -57.8975         -DE/DX =    0.0                 !
 ! D210  D(65,58,61,64)       -178.0567         -DE/DX =    0.0                 !
 ! D211  D(66,58,61,62)       -179.6359         -DE/DX =    0.0                 !
 ! D212  D(66,58,61,63)         60.4978         -DE/DX =    0.0                 !
 ! D213  D(66,58,61,64)        -59.6615         -DE/DX =    0.0                 !
 ! D214  D(55,58,65,67)        -62.9419         -DE/DX =    0.0                 !
 ! D215  D(55,58,65,68)        177.1943         -DE/DX =    0.0                 !
 ! D216  D(55,58,65,69)         57.5694         -DE/DX =    0.0                 !
 ! D217  D(61,58,65,67)        174.8592         -DE/DX =    0.0                 !
 ! D218  D(61,58,65,68)         54.9954         -DE/DX =    0.0                 !
 ! D219  D(61,58,65,69)        -64.6295         -DE/DX =    0.0                 !
 ! D220  D(66,58,65,67)         56.5436         -DE/DX =    0.0                 !
 ! D221  D(66,58,65,68)        -63.3201         -DE/DX =    0.0                 !
 ! D222  D(66,58,65,69)        177.0549         -DE/DX =    0.0                 !
 --------------------------------------------------------------------------------
 Lowest energy point so far.  Saving SCF results.
 Largest change from initial coordinates is atom   16       4.383 Angstoms.
 GradGradGradGradGradGradGradGradGradGradGradGradGradGradGradGradGradGrad

 Leave Link  103 at Thu Oct 10 11:59:27 2019, MaxMem=   393216000 cpu:               0.7 elap:               0.2
 (Enter /opt/sw/arch/easybuild/sticky_20170712/software/Gaussian/16_A03-PGI-16.5-betaprint/g16/l202.exe)
 Stoichiometry    C29H48O2
 Framework group  C1[X(C29H48O2)]
 Deg. of freedom   231
 Full point group                 C1      NOp   1
 RotChk:  IX=2 Diff= 5.79D-15
 Largest Abelian subgroup         C1      NOp   1
 Largest concise Abelian subgroup C1      NOp   1
                         Standard orientation:                         
 ---------------------------------------------------------------------
 Center     Atomic      Atomic             Coordinates (Angstroms)
 Number     Number       Type             X           Y           Z
 ---------------------------------------------------------------------
      1          6           0       -6.604026    2.156926    0.924112
      2          6           0       -6.013236    2.908896   -0.196692
      3          6           0       -5.160714    2.157576   -1.175170
      4          6           0       -6.366579    0.828089    1.048172
      5          6           0       -4.962818    0.734123   -0.999804
      6          6           0       -5.514208    0.131677    0.079194
      7          6           0       -4.175440   -0.050985   -2.002945
      8          6           0       -4.357700   -1.542113   -1.784479
      9          1           0       -3.109624    0.224552   -1.959871
     10          1           0       -4.503700    0.212265   -3.018398
     11          6           0       -4.304316   -1.889155   -0.308173
     12          1           0       -3.615732   -2.123860   -2.341946
     13          1           0       -5.342306   -1.851973   -2.162343
     14          8           0       -5.353241   -1.179427    0.373098
     15          6           0       -4.607400    2.865341   -2.172340
     16          1           0       -4.791648    3.933575   -2.237736
     17          1           0       -3.969153    2.416466   -2.927879
     18          8           0       -6.218517    4.104360   -0.320514
     19          6           0       -7.442600    2.985722    1.839365
     20          1           0       -7.825308    2.435887    2.699696
     21          1           0       -8.294911    3.414502    1.299082
     22          1           0       -6.869746    3.843971    2.207571
     23          6           0       -6.924316   -0.024640    2.141415
     24          1           0       -7.595033    0.522342    2.802830
     25          1           0       -6.118421   -0.454729    2.746839
     26          1           0       -7.471495   -0.878123    1.726836
     27          6           0       -2.974738   -1.491424    0.368951
     28          6           0       -4.613929   -3.369170   -0.077500
     29          1           0       -5.611442   -3.595787   -0.445598
     30          1           0       -4.580712   -3.594694    0.984595
     31          1           0       -3.897375   -3.994338   -0.600588
     32          6           0       -1.718180   -2.091251   -0.256126
     33          1           0       -3.037103   -1.801103    1.415043
     34          1           0       -2.897109   -0.401841    0.360693
     35          6           0       -0.475638   -1.686512    0.536281
     36          1           0       -1.608398   -1.742168   -1.284438
     37          1           0       -1.804735   -3.177190   -0.273799
     38          6           0        0.844762   -2.117847   -0.115543
     39          1           0       -0.532824   -2.110819    1.541272
     40          1           0       -0.473255   -0.598353    0.639872
     41          6           0        2.018811   -1.492710    0.650020
     42          6           0        3.355914   -1.588091   -0.082621
     43          1           0        1.799047   -0.436470    0.825645
     44          1           0        2.106139   -1.975033    1.626331
     45          6           0        4.463191   -0.874197    0.690669
     46          1           0        3.257390   -1.133873   -1.071761
     47          1           0        3.623660   -2.635138   -0.219972
     48          6           0        5.806988   -0.823668   -0.048501
     49          1           0        4.604519   -1.365996    1.656011
     50          1           0        4.136971    0.149918    0.890089
     51          6           0        6.756898    0.131635    0.686023
     52          6           0        8.038154    0.448284   -0.083654
     53          1           0        7.013373   -0.297125    1.657774
     54          1           0        6.230023    1.071249    0.871880
     55          6           0        8.860008    1.521382    0.628328
     56          1           0        7.772174    0.787712   -1.086176
     57          1           0        8.647333   -0.451594   -0.183433
     58          6           0       10.226361    1.783723   -0.014386
     59          1           0        9.018549    1.204664    1.662532
     60          1           0        8.292768    2.454998    0.654830
     61          6           0       11.054064    2.702737    0.882894
     62          1           0       10.554898    3.662011    1.003835
     63          1           0       12.035637    2.879874    0.448944
     64          1           0       11.190096    2.260842    1.867541
     65          6           0       10.090095    2.402467   -1.403589
     66          1           0       10.753154    0.827001   -0.109451
     67          1           0        9.582265    1.726756   -2.086402
     68          1           0       11.072148    2.623736   -1.816102
     69          1           0        9.524551    3.330558   -1.349981
     70          6           0        6.418884   -2.216676   -0.176380
     71          1           0        5.630269   -0.425907   -1.054801
     72          1           0        7.359313   -2.177096   -0.718991
     73          1           0        5.753527   -2.884372   -0.716967
     74          1           0        6.606016   -2.638491    0.809105
     75          6           0        0.965910   -3.639325   -0.160080
     76          1           0        0.862401   -1.735256   -1.142872
     77          1           0        1.913537   -3.938212   -0.599325
     78          1           0        0.172135   -4.075738   -0.760342
     79          1           0        0.907000   -4.051947    0.845005
 ---------------------------------------------------------------------
 Rotational constants (GHZ):           0.2141914           0.0315432           0.0289796
 Leave Link  202 at Thu Oct 10 11:59:27 2019, MaxMem=   393216000 cpu:               0.1 elap:               0.0
 (Enter /opt/sw/arch/easybuild/sticky_20170712/software/Gaussian/16_A03-PGI-16.5-betaprint/g16/l9999.exe)
 1\1\GINC-HER2-W034\FOpt\ONIOM(M06/6-311+G(d):External='/home/pbeaujea/
 g2xtb_interface/interface.py')\Mixed\C29H48O2\PBEAUJEA\10-Oct-2019\0\\
 #p opt=nomicro oniom(m06/6-311+g(d):external="/home/pbeaujea/g2xtb_int
 erface/interface.py")\\Vitamin E oxidation ONIOM opt\\0,1\C,-1.7986595
 343,-4.0795399917,1.3808019657\C,-1.1263141639,-3.8630384155,2.6737715
 103\C,0.2315773784,-3.2268910031,2.6619185078\C,-1.1867649826,-3.71031
 66469,0.2289160888\C,0.8224622874,-2.8350516032,1.3995982883\C,0.14869
 40306,-3.1051930402,0.257552455\C,2.1449660053,-2.1332116717,1.3671092
 213\C,2.4150852708,-1.5546481891,-0.0101010011\H,2.9535949333,-2.81695
 1021,1.6710187063\H,2.152400897,-1.3241422715,2.1111202904\C,2.0266965
 021,-2.5352750905,-1.1011060763\H,3.4621073051,-1.2527803531,-0.121172
 9815\H,1.8135663785,-0.6456571535,-0.1520670818\O,0.6249934321,-2.8328
 016684,-0.9794695836\C,0.840405142,-3.0649945534,3.8470571177\H,0.3413
 710809,-3.3908268458,4.75488298\H,1.8268279725,-2.6211432359,3.9453035
 642\O,-1.6650344939,-4.1902096973,3.7174888329\C,-3.1472986584,-4.7091
 317421,1.4929836432\H,-3.6117171791,-4.9225507757,0.529800984\H,-3.826
 1062526,-4.0670799442,2.0667269194\H,-3.0843445694,-5.6452486418,2.058
 7130218\C,-1.7858951767,-3.8786355361,-1.129799419\H,-2.7985534785,-4.
 2786713976,-1.097927924\H,-1.1710505458,-4.5457701107,-1.7445184603\H,
 -1.8109754036,-2.9226651675,-1.6638459056\C,2.7835375305,-3.8786752827
 ,-1.0178477006\C,2.1786610483,-1.9072445698,-2.4874673215\H,1.53393871
 62,-1.0354985428,-2.566682589\H,1.8865254561,-2.6206970265,-3.25274798
 16\H,3.2057215943,-1.5994910222,-2.6558122536\C,4.3056731459,-3.774707
 4887,-1.0596214425\H,2.4437259867,-4.4957517159,-1.8532179918\H,2.4815
 769376,-4.3871234036,-0.0993792779\C,4.9419152162,-5.1641340449,-1.041
 5709899\H,4.6662521436,-3.2117885089,-0.1968107735\H,4.6084065338,-3.2
 439836369,-1.9617033921\C,6.4715830752,-5.1455495094,-0.9226146588\H,4
 .6610935534,-5.702938674,-1.9493930316\H,4.5336833957,-5.718227187,-0.
 1923628816\C,6.9835880953,-6.5770138709,-0.7127690444\C,8.4432309226,-
 6.6529790883,-0.2684942774\H,6.367766321,-7.060410802,0.0500376662\H,6
 .8578979385,-7.1410123982,-1.6398901648\C,8.8644776546,-8.0957263826,0
 .0048467596\H,8.5736683307,-6.0615169226,0.6412182039\H,9.0829441919,-
 6.2261720186,-1.0401569897\C,10.2825232432,-8.233873662,0.5747407872\H
 ,8.7926835571,-8.6742800399,-0.9191913757\H,8.1589373369,-8.5298609535
 ,0.7181058997\C,10.500209271,-9.6746206124,1.0556967595\C,11.784912572
 ,-9.8750012623,1.8579886403\H,10.5037599343,-10.3428908799,0.191222313
 1\H,9.6556141221,-9.9616953612,1.6875691066\C,11.8604303544,-11.286507
 3864,2.4375124153\H,11.8151885971,-9.1399280407,2.6640643094\H,12.6546
 576965,-9.7107628267,1.2197073706\C,13.1894865516,-11.6006549639,3.133
 0328594\H,11.7179144254,-12.001688641,1.6231252695\H,11.0427648668,-11
 .4315049152,3.1477950797\C,13.2532549668,-13.0865406039,3.4835560145\H
 ,12.4501473571,-13.3473947957,4.1698309127\H,14.2015005276,-13.3280695
 113,3.9586027934\H,13.1526276579,-13.6987127444,2.590009382\C,13.38104
 65109,-10.7626424229,4.3949107365\H,14.0058489361,-11.3740612853,2.437
 2781757\H,13.4296552534,-9.7030514555,4.1590808577\H,14.3066108854,-11
 .0397423264,4.8950099087\H,12.5565771694,-10.9263709489,5.0859316409\C
 ,11.3334853608,-7.834536974,-0.4583371749\H,10.371250325,-7.5659325042
 ,1.4396474867\H,12.3339170817,-7.9140984976,-0.0421562188\H,11.1902914
 616,-6.806462283,-0.77975586\H,11.2697424075,-8.4815713789,-1.33092470
 68\C,7.1121251087,-4.5079593296,-2.1533623825\H,6.7409187559,-4.552086
 3128,-0.0409399572\H,8.1956003345,-4.5206711167,-2.0747190762\H,6.8016
 126852,-3.4722286864,-2.2614966641\H,6.8257927208,-5.0510794138,-3.051
 6708342\\Version=ES64L-G16RevA.03\HF=-40.9397097\RMSD=7.877e-09\RMSF=4
 .449e-06\Dipole=1.319145,0.4699886,-1.3950854\PG=C01 [X(C29H48O2)]\\@


 Cherishing children is the mark of a civilized society.
 -- Joan Ganz Cooney
 Job cpu time:       0 days  7 hours 42 minutes 54.2 seconds.
 Elapsed time:       0 days  2 hours  8 minutes 38.6 seconds.
 File lengths (MBytes):  RWF=     93 Int=      0 D2E=      0 Chk=     23 Scr=      1
 Normal termination of Gaussian 16 at Thu Oct 10 11:59:27 2019.
